ITEM: TIMESTEP
0
ITEM: NUMBER OF ATOMS
4500
ITEM: BOX BOUNDS
0.000000 36.598375
0.000000 36.598375
0.000000 36.537395
ITEM: ATOMS id type x y z vx vy vz mass
4110 2 4.823360 4.851890 4.426060 8.06444e-05 0.00330005 0.00249882 15.9994
4108 1 4.672290 4.032750 3.954440 0.00295111 0.00466847 -0.000772159 1.008
4109 2 5.289720 3.413920 4.344410 0.00406723 0.00489363 -0.00223541 15.9994
1607 2 6.270790 2.699720 6.745200 -0.00292365 -0.00850741 0.00188819 15.9994
2127 2 2.748000 4.628300 4.275640 -0.000126157 -0.00124017 0.00525342 15.9994
2126 2 2.791590 6.126590 4.063270 -0.00403156 -0.000940235 0.00678324 15.9994
2125 1 2.184240 5.395570 4.177160 -0.00227239 -0.00383307 -0.00252246 1.008
697 1 7.317200 4.498980 1.100550 0.000839716 -0.00227827 -0.00563476 1.008
699 2 6.455550 4.459810 0.685510 0.000300473 0.00887745 -0.00551813 15.9994
698 2 7.248480 5.217840 1.728840 0.0107007 -0.000425455 -0.00670878 15.9994
975 2 4.583840 6.319490 0.024490 -0.00531415 0.00166348 0.0017345 15.9994
973 1 4.102640 7.116880 0.245489 -0.0067948 0.00207195 -0.00305437 1.008
3875 2 4.939720 1.649890 0.989640 -0.00324078 -3.72743e-05 -0.000869059 15.9994
3733 1 2.171370 4.089760 -0.401902 -0.000130444 -0.00321135 0.00368856 1.008
396 2 7.072890 6.779400 4.026590 0.00222098 0.00485028 0.00289967 15.9994
3720 2 3.630330 4.598770 0.695883 0.00205384 0.000300878 -0.00107473 15.9994
1655 2 6.513990 1.841580 4.145090 0.0030342 -0.0013668 8.79094e-05 15.9994
1654 1 6.120420 1.757660 3.276590 -0.0083769 0.0150994 0.00364495 1.008
1656 2 6.645150 2.331910 2.718810 0.00894562 -0.00467155 -0.000472452 15.9994
3718 1 4.584240 4.522060 0.715795 0.00179912 -0.0041292 -0.00674616 1.008
3719 2 4.783100 4.231370 1.605840 0.00602247 -0.0011577 -0.00673874 15.9994
2750 2 4.882810 7.066770 2.227440 -0.000651746 -5.59907e-05 -0.00666694 15.9994
2749 1 5.499520 7.556290 2.771740 -0.00475337 -0.000338418 -0.00180254 1.008
2751 2 6.054090 8.022480 2.146170 -0.00312939 0.003728 0.00269511 15.9994
3874 1 4.835870 1.792150 0.048783 -0.00138508 -0.00195062 -0.00133854 1.008
3876 2 4.966400 2.733250 -0.067486 -0.00454048 -0.00169003 -0.00255262 15.9994
1606 1 6.729030 2.536470 5.920820 -0.00435181 -0.00834609 0.00108454 1.008
3484 1 5.263070 6.019660 5.744540 0.00681818 -0.00741497 0.0182436 1.008
3082 1 3.427000 7.980220 6.333380 0.00923356 -0.000162799 0.00449187 1.008
3794 2 0.943339 -0.103838 -0.091319 0.00148227 -0.00706902 -0.00115921 15.9994
3486 2 4.639860 6.697090 6.007090 0.00687758 3.67203e-05 -0.00100237 15.9994
1880 2 3.093970 2.284530 5.197970 -0.00448498 -0.00629987 0.00142573 15.9994
1881 2 2.739620 1.379430 6.358630 -0.00052458 -0.000917532 0.00679297 15.9994
3485 2 6.121670 6.393950 5.941870 0.00733456 0.00310401 -0.00418306 15.9994
548 2 0.075938 7.875130 2.428760 0.00399905 -0.00310584 -0.00357951 15.9994
1410 2 0.559664 5.836760 5.076930 0.00143769 0.00370754 -0.00188882 15.9994
1094 2 1.186260 5.745240 1.015190 -0.000456125 -0.00018938 -0.00265477 15.9994
549 2 0.217788 8.302390 3.874170 0.00642617 -0.00387066 -0.00362302 15.9994
3108 2 5.901460 -0.510692 2.698060 -0.00358306 -0.00315673 -0.0037873 15.9994
1608 2 7.575350 2.175050 6.184180 0.000881414 0.00312389 -6.23126e-05 15.9994
395 2 8.502320 6.324850 3.821670 -0.000870503 -0.00392006 0.00100066 15.9994
394 1 7.617840 5.993970 3.978000 -0.0051757 0.000737843 -0.0135479 1.008
2453 2 3.898400 8.259530 3.401750 0.00012522 -0.000321199 -0.00322189 15.9994
3793 1 0.434093 0.592526 -0.506020 0.00480042 -0.00232418 0.00276699 1.008
1879 1 2.466400 2.181490 5.913350 -0.0102377 -0.0103485 -0.00422067 1.008
872 2 0.833821 -0.141999 3.346400 0.00321557 -3.74522e-05 -0.00439487 15.9994
547 1 -0.371688 8.359880 3.122210 0.00160117 -0.0100763 -0.000286008 1.008
871 1 -0.073866 -0.419174 3.221870 0.00490679 -0.00800189 0.00114001 1.008
1408 1 -0.390269 5.800640 5.188980 0.00637041 -0.0239853 0.0308283 1.008
974 2 4.357290 7.745770 -0.429708 -0.000141351 0.00159545 -0.0009573 15.9994
1093 1 1.113130 6.699370 0.992196 0.00400688 0.000725266 0.0221384 1.008
1095 2 2.002500 7.003950 0.812017 -0.00047384 5.80695e-05 -0.000968717 15.9994
3979 1 11.063400 0.389311 2.261440 -0.0127645 0.00356797 -0.00567996 1.008
3981 2 10.731000 1.259760 2.042230 -0.00244266 0.00921146 0.00107732 15.9994
3980 2 10.738200 0.224099 3.146430 -0.00564511 0.0051174 -0.00278348 15.9994
2711 2 12.613000 5.819410 0.970993 -0.0049276 -0.000262598 -0.000501161 15.9994
2710 1 13.277700 5.915300 0.288950 -0.00319636 0.00620535 0.00212073 1.008
441 2 16.916100 5.063980 -0.408280 0.00307079 -0.00175214 0.00586835 15.9994
341 2 14.275700 3.399280 6.492100 -0.00435985 0.000235312 0.00354731 15.9994
340 1 13.888700 2.915450 5.762500 0.0251296 -0.00425597 -0.00912449 1.008
2947 1 9.964410 3.893480 4.419630 -0.00536605 -0.00210795 -0.00147127 1.008
2949 2 10.390300 4.180940 3.612040 -0.00633215 0.00577159 0.000845925 15.9994
2948 2 9.046020 4.138650 4.307020 -0.00390712 0.006494 0.005515 15.9994
2664 2 14.386000 3.950410 3.042720 0.002824 0.00198331 0.000725545 15.9994
3709 1 15.370400 2.850970 2.036030 0.0071204 -0.00454467 -0.00932653 1.008
3710 2 16.225200 2.718980 2.446070 0.00164322 -0.00101669 0.0032225 15.9994
553 1 14.041300 0.402352 2.190660 -0.000746576 -0.00393043 0.0175549 1.008
3711 2 14.889200 2.044010 2.219140 0.0010609 0.00122866 0.00017354 15.9994
2662 1 14.194300 4.644830 3.673010 0.0169932 -0.00129052 0.00859859 1.008
554 2 13.093900 0.347449 2.316140 -0.00279878 -0.00519915 0.00115807 15.9994
2663 2 14.421700 5.454040 3.215070 -0.00839524 0.00207002 0.00201788 15.9994
342 2 13.649200 3.590210 5.127200 -0.00451442 -0.0031939 0.00317206 15.9994
32 2 15.865700 1.919590 0.471840 -0.0018712 -0.000725659 0.00019972 15.9994
1380 2 10.931400 7.169540 4.484690 -0.0033319 -0.000852569 0.00248631 15.9994
1378 1 10.261700 7.358500 3.827410 0.00446978 -0.00232695 -0.00582264 1.008
2819 2 15.829200 4.769300 4.283000 0.00127617 -0.00551123 -0.000481903 15.9994
2818 1 16.758000 4.623620 4.462760 0.00555568 -0.00940605 -0.0255551 1.008
2820 2 17.178200 5.455410 4.244020 -0.000708906 -0.00224009 -0.0104235 15.9994
1379 2 10.352200 8.295690 3.655070 -0.00484206 0.000618352 0.00559242 15.9994
4213 1 8.984900 0.987610 6.131570 -0.00293551 0.00533146 0.00213359 1.008
3393 2 13.410100 7.136140 5.789610 -0.00446199 -0.0024391 -0.00177724 15.9994
3391 1 12.925000 6.343820 5.559200 -0.000459856 -0.00703789 0.00565586 1.008
3392 2 13.596700 5.727380 5.267620 0.00138427 -0.00213965 -0.00041029 15.9994
1153 1 14.847200 7.137510 2.858500 -0.00524247 -0.0041827 -0.00259991 1.008
1154 2 14.478400 7.918920 2.446650 -0.00552811 -0.00625003 -0.00622302 15.9994
390 2 9.596040 6.273060 5.942380 -0.00165565 0.0060749 -0.00319579 15.9994
4499 2 15.915400 4.522960 6.377560 -0.00198041 0.0015356 -7.55061e-05 15.9994
312 2 15.165000 0.877231 4.605800 0.00216735 0.00614647 -0.00866042 15.9994
1291 1 11.128200 5.574260 1.856040 0.0213018 0.0132114 -0.00844311 1.008
1292 2 10.688800 5.863110 1.056220 0.00222749 0.00414263 -0.00123324 15.9994
2421 2 16.397400 6.925100 2.949980 0.00294375 0.00287723 -0.00254527 15.9994
1293 2 10.897300 6.235170 2.508800 -6.39082e-05 -0.00364097 0.00105826 15.9994
310 1 15.901400 0.665690 5.179610 0.0124714 -0.0159812 -0.030163 1.008
311 2 16.510000 1.396060 5.068200 0.00152781 -0.00203288 0.00228241 15.9994
2712 2 13.875100 6.581870 0.628104 -0.00591242 0.00536086 0.00851328 15.9994
2983 1 14.986900 8.569860 5.926320 0.0158969 -0.01374 -0.0174293 1.008
1155 2 14.974200 7.386070 3.774090 -0.000815116 0.00165881 -0.00484303 15.9994
555 2 14.310800 -0.496479 2.001790 -0.000161825 0.00117571 -0.00560192 15.9994
4215 2 9.690350 1.576580 6.399320 5.29175e-05 0.00215304 0.00117778 15.9994
4214 2 9.006340 0.279344 6.775100 -0.00118084 0.00204065 -0.00157695 15.9994
3645 2 9.474280 -0.327837 4.955980 -0.00110437 -0.00318819 -0.000111209 15.9994
388 1 9.772090 6.964900 6.580030 0.0084814 -0.0113196 0.012817 1.008
2354 2 12.385000 1.982540 6.297130 -0.00428725 -0.000208197 -0.00582867 15.9994
204 2 16.802600 -0.213136 3.953860 0.00944465 0.00194955 0.00187721 15.9994
2419 1 17.324800 6.948110 3.185910 0.00493897 0.0190784 -0.0120987 1.008
2985 2 15.732700 8.349550 6.484430 0.00423124 -0.00338014 0.00222382 15.9994
2420 2 17.758500 6.433360 2.505290 0.00275427 -0.00238879 0.00280018 15.9994
203 2 17.514700 -0.158958 2.618960 0.000677525 -0.00441579 -0.00302393 15.9994
11 2 8.985230 3.461950 -0.223646 0.00382381 0.00383796 0.00286911 15.9994
439 1 17.543300 5.737810 -0.145795 -0.013713 0.0208843 -0.0124262 1.008
910 1 16.486600 8.309750 0.778868 -0.0102146 -0.0103523 0.00667556 1.008
31 1 15.638200 1.721810 -0.436640 0.0133937 -0.000127349 -0.00371473 1.008
911 2 16.808100 8.223230 1.676300 0.00442407 -0.00515696 0.00196303 15.9994
912 2 16.814400 7.530280 0.330319 0.00466599 0.000114329 -0.000715773 15.9994
716 2 14.431400 4.511560 -0.277994 -3.69689e-05 -0.00011309 -0.00791845 15.9994
33 2 15.386100 0.798467 -0.425344 -0.00437521 0.00474866 -0.00525371 15.9994
1516 1 9.229240 6.944110 0.027508 -0.00106394 0.0018461 0.00277873 1.008
1517 2 10.008100 7.166000 -0.482821 0.000911976 0.00115604 0.00552656 15.9994
2454 2 2.798510 8.687010 4.350130 -0.0002205 -0.00277756 -0.00256398 15.9994
2922 2 8.256290 8.765960 1.003730 0.00273346 0.00344073 -0.00263364 15.9994
2921 2 7.092370 9.719030 1.173570 0.00549613 0.00728601 -0.0055529 15.9994
2920 1 7.306680 8.827090 0.900166 0.00253309 0.00483119 0.000228108 1.008
2883 2 5.170550 17.203800 3.292960 0.00210122 -0.00333867 0.00764153 15.9994
1071 2 2.987090 16.760400 6.776710 -0.00249537 0.00311532 -0.00102853 15.9994
351 2 2.669010 17.244400 0.856894 0.00251783 0.000554803 0.00262231 15.9994
3662 2 0.431810 9.931600 -0.258388 -3.7358e-05 -0.000621175 0.00189056 15.9994
3083 2 3.529560 8.915700 6.508310 0.00592444 0.000602243 0.00214531 15.9994
2452 1 3.080590 8.755620 3.438010 0.00311976 0.00442356 -0.000975134 1.008
2096 2 4.238710 11.103300 3.891490 -0.00508696 -0.00390726 -0.0011135 15.9994
1971 2 6.579180 11.540900 1.783650 -7.72265e-05 -0.00333398 -0.00094184 15.9994
1969 1 7.534260 11.568200 1.841150 0.000980776 0.00150823 -0.0211487 1.008
1820 2 6.196690 15.148000 4.638970 0.0019166 0.00312525 0.00336041 15.9994
1819 1 5.804200 15.715800 3.975800 -0.00957249 -0.00812312 0.000496966 1.008
898 1 2.374380 13.267400 2.643040 0.00132487 -0.000795544 0.002305 1.008
900 2 3.000570 13.750600 2.103890 0.00171893 0.00424581 0.00731298 15.9994
506 2 5.915800 12.429100 6.588730 -0.00371208 4.17326e-05 0.00212435 15.9994
505 1 5.241720 11.754300 6.669150 0.00183272 -0.00299774 0.0227904 1.008
507 2 5.723050 10.928000 6.626600 0.0036528 -0.000864695 0.00245665 15.9994
899 2 2.915350 12.805600 3.283600 0.000386609 -0.00168143 0.00243021 15.9994
3591 2 1.099580 15.408600 4.401110 -0.00866083 0.00282338 -0.0062833 15.9994
3589 1 0.644955 16.001000 3.802250 -0.00703887 0.00604469 -0.00429478 1.008
2095 1 3.943880 11.965200 4.185470 -0.00351612 -0.00187781 -0.00555263 1.008
2097 2 4.099370 11.962800 5.129950 -0.00196226 0.0033185 -0.00581319 15.9994
3636 2 0.693135 12.730400 2.215780 -0.0021828 -0.00213498 -0.00571254 15.9994
3590 2 0.289856 16.687300 4.367140 -0.00247153 0.00681061 -0.00238216 15.9994
2867 2 1.371600 15.614100 1.808220 0.00235783 0.00355166 -0.00446956 15.9994
2868 2 1.245150 15.134400 0.377905 0.0011717 -0.00120071 -0.00273931 15.9994
1821 2 6.184430 15.418000 3.149380 -0.000741301 -0.00226105 0.0024367 15.9994
2866 1 1.874420 15.495300 1.002440 0.0011706 0.0027645 -0.00507246 1.008
1477 1 7.896280 13.687800 5.564750 0.0072824 0.000541843 0.000957433 1.008
1479 2 8.507930 13.505100 4.851470 0.00852293 -0.00541491 0.00356453 15.9994
1970 2 7.723460 12.383600 2.305420 0.00572222 -0.00954301 -0.00372013 15.9994
965 2 3.180170 13.955000 0.223315 -0.00130757 -0.000682355 0.00143124 15.9994
405 2 0.862833 13.691700 6.447720 -0.00260252 -0.00271952 0.00369056 15.9994
403 1 0.193137 14.372900 6.387170 0.00105176 0.00211793 0.018348 1.008
1478 2 8.203310 13.143200 6.289560 -0.000202159 -0.00132403 0.00271448 15.9994
964 1 4.072150 13.620100 0.131576 0.00420968 0.010934 0.0128814 1.008
426 2 1.857270 10.873300 1.688540 0.00150842 -0.00376383 0.00947227 15.9994
1502 2 6.695860 15.001700 0.718265 0.00316073 -0.00150704 0.00301982 15.9994
1501 1 6.069510 15.030800 1.441500 -0.00341173 0.00574878 -0.0029933 1.008
1503 2 5.299430 14.568300 1.110800 -0.00163771 0.0053837 -0.00655963 15.9994
713 2 1.310450 9.213040 6.514550 0.000654692 -0.00318284 -0.0081098 15.9994
3635 2 -0.164983 13.238600 1.076810 0.00141925 0.00326674 -0.0059765 15.9994
1338 2 -0.470277 17.775600 6.510330 0.00801599 0.00669808 -0.00290336 15.9994
712 1 0.961787 8.927020 5.670240 -0.0013195 0.00548403 -0.0101919 1.008
798 2 4.422640 11.620900 0.595919 -0.00488104 0.00207483 0.00174919 15.9994
797 2 4.231430 10.205700 1.098550 -0.00387947 0.00282449 0.00415059 15.9994
796 1 4.792250 10.975000 1.197980 -0.0154979 0.00970798 0.0164678 1.008
425 2 2.297740 9.435680 1.864860 0.00213774 -0.0047605 -0.000478754 15.9994
424 1 2.025790 10.067900 1.199570 0.0156184 0.00369732 0.00207168 1.008
3634 1 -0.005221 12.465000 1.617370 -0.00577167 0.00328532 -0.00388057 1.008
714 2 0.040946 8.732220 5.844420 0.000160749 -0.000397461 -0.00910462 15.9994
2882 2 4.370190 17.751900 2.130670 0.00173041 -0.00201083 0.00856233 15.9994
2283 2 16.968000 14.084700 0.245465 -0.000724799 -0.00346069 -0.00657532 15.9994
2730 2 10.058500 13.523400 2.605260 -0.00224084 0.0108371 0.00266783 15.9994
2728 1 9.861160 13.482400 3.540990 -0.00234573 0.0153545 0.00282585 1.008
318 2 10.101200 10.593900 3.095930 0.000144824 -0.00103611 0.00338767 15.9994
1224 2 15.354500 16.245000 3.566520 0.00483591 -0.00127795 -3.81348e-05 15.9994
2984 2 15.103800 9.498330 5.725040 -0.000276286 -0.00822864 -0.00131658 15.9994
2928 2 11.624200 15.836300 4.315210 0.00144311 0.000374237 0.00354858 15.9994
113 2 8.898850 15.722000 4.784450 0.00396173 0.000845452 0.00404651 15.9994
1456 1 16.427900 11.381900 4.932650 -0.0179452 -0.0153201 -0.00224446 1.008
2729 2 10.695900 13.669100 3.970710 0.00254679 -0.00485913 0.00207306 15.9994
3837 2 14.460800 10.279600 2.232690 0.000738129 0.00894041 -0.000276471 15.9994
3836 2 13.470700 9.647360 1.277720 0.0056259 -0.00893266 0.00653622 15.9994
432 2 13.644700 13.187600 1.569090 0.00283607 0.00279938 -0.00220928 15.9994
3607 1 12.639000 10.561000 5.044980 0.0138796 0.00590712 0.00105677 1.008
3608 2 12.431100 10.134900 5.876480 -0.00438862 0.0010034 -0.00602114 15.9994
430 1 13.507000 13.544600 2.446470 0.0105386 -0.00222563 0.00101676 1.008
431 2 13.515600 14.493800 2.323340 -0.00514173 -0.00170761 0.00417062 15.9994
3835 1 13.798000 9.591340 2.175490 0.0220168 -0.0115337 0.000354034 1.008
3819 2 11.127600 14.643000 0.927717 0.0121414 -0.000125576 -0.00083518 15.9994
3818 2 11.367500 13.149300 0.985038 -0.00395258 -0.00276037 -0.00292552 15.9994
772 1 12.183400 13.518600 4.955280 0.0318128 -0.00905157 0.00874183 1.008
773 2 12.626900 13.998500 4.255810 0.00362801 0.0039178 -0.000159465 15.9994
3817 1 10.669300 13.802700 0.942578 0.00286242 0.00506293 0.00565737 1.008
774 2 12.084700 14.158700 5.660160 -0.00064805 -0.00341705 -0.00100613 15.9994
3609 2 12.557500 11.497000 5.228000 -0.000626037 0.00445088 0.00202181 15.9994
1458 2 16.456300 11.509500 3.984420 1.40763e-05 0.0041351 0.000899582 15.9994
2389 1 11.828600 16.561600 1.200400 -0.0036652 0.0224472 0.00716621 1.008
2390 2 12.650400 16.772500 0.757362 0.000580726 -0.00108823 0.00386552 15.9994
1223 2 15.893100 16.380900 4.974830 -0.00328658 0.00906249 0.00203843 15.9994
1222 1 15.095600 16.178600 4.485640 0.00648855 -0.0217334 -0.00108298 1.008
1457 2 15.721000 11.954300 5.230750 0.00393016 0.00998873 0.00108347 15.9994
317 2 11.019700 10.321400 4.268140 0.00214851 0.00195833 0.00247488 15.9994
316 1 10.140800 10.137700 3.936480 0.0108471 -0.020792 -0.00787954 1.008
1858 1 12.947600 12.288500 -0.189714 -0.0166803 0.00304756 0.0127618 1.008
2927 2 13.088900 16.202300 4.203260 0.00153456 -0.00348409 -0.0074721 15.9994
2391 2 12.061100 16.514200 2.127710 0.0020052 -0.000480251 0.00455959 15.9994
1649 2 15.915100 12.288000 1.988660 -0.00557333 0.00140171 -0.00591787 15.9994
1648 1 15.845700 11.352300 2.178160 -0.00342234 0.00198253 -0.00239937 1.008
1860 2 12.642800 11.387900 -0.300456 0.00147562 -0.000878359 -0.00488974 15.9994
2129 2 9.462510 8.757590 6.534160 -0.00224408 0.000175452 -0.00124161 15.9994
2130 2 9.233460 10.068900 5.813200 0.00414277 0.00199826 0.000107806 15.9994
2281 1 17.106300 13.423700 0.923844 0.0282578 0.017303 0.00764034 1.008
112 1 9.767740 16.077100 4.972080 0.00209371 0.013422 -0.0112615 1.008
2128 1 9.100060 9.635100 6.655940 -0.0163523 -0.00493708 -0.00677467 1.008
1132 1 14.515200 13.173700 6.771410 -0.00142052 -0.0023982 -0.00183461 1.008
1133 2 14.051900 13.119800 5.935530 0.00225662 0.00233594 -0.00416324 15.9994
123 2 15.889500 9.487490 -0.398487 -0.00223674 -0.00505621 -0.00330607 15.9994
3414 2 10.269800 16.731200 0.263799 -0.00318296 0.000106611 -0.00233653 15.9994
3376 1 17.659700 16.945600 1.019570 0.0321891 -0.0138154 0.0159012 1.008
2282 2 17.733900 12.812200 0.538663 0.00152102 -0.00180578 -0.0054158 15.9994
3412 1 9.423340 16.992500 -0.098775 0.00715744 0.0211138 -0.0112705 1.008
1048 1 12.671800 9.458490 -0.292328 0.000593585 0.00231188 0.00028777 1.008
2926 1 12.313700 16.012000 3.674970 -0.00509371 0.00723794 -0.00159261 1.008
1650 2 16.752300 11.047700 2.218310 -0.00234634 0.00724589 0.0136842 15.9994
114 2 9.596850 16.907200 5.417020 -0.00201817 0.00237553 0.00770503 15.9994
3413 2 8.979770 17.437100 0.623609 -0.00522412 -0.00271473 -0.00424688 15.9994
1839 2 8.952550 13.979600 -0.097152 0.00156745 0.00417794 -0.000257669 15.9994
89 2 17.671100 12.182000 6.377320 -0.00582478 -0.0020706 -0.00295917 15.9994
4225 1 14.030500 16.936000 -0.376310 0.014814 -0.00856209 -0.00543107 1.008
3377 2 17.528500 16.277700 0.346515 -0.00312029 0.00725921 0.0018686 15.9994
3084 2 2.894680 7.657090 7.060320 0.00568844 0.000818439 0.00228425 15.9994
4168 1 3.213320 -0.151596 7.061530 0.0123121 -0.00311509 0.00300429 1.008
2545 1 5.797800 -0.190253 11.646400 0.00298489 -0.00146563 -0.0112877 1.008
3863 2 8.605820 -0.427465 13.059400 -0.00512834 -0.00454498 0.00330327 15.9994
299 2 0.231226 5.487860 11.927000 0.00378172 -0.00542832 -0.00180063 15.9994
2226 2 -0.406161 5.486320 7.053570 -0.000250121 -0.00359719 -0.00350266 15.9994
2050 1 5.813980 5.591600 9.425540 0.034007 -0.00962117 -0.00112841 1.008
2611 1 7.958170 1.290770 12.787600 -0.00904316 0.0100221 0.00281584 1.008
1960 1 6.346350 0.629605 9.066770 -0.00736274 0.0160604 -0.00221467 1.008
2051 2 5.658180 4.781410 8.940210 -0.0068994 -0.00184229 -0.00104067 15.9994
2052 2 5.964070 6.251670 8.748770 -0.00188327 -0.00314913 -0.00282081 15.9994
1962 2 5.847660 0.312652 9.819810 -0.00523404 0.00291826 -0.00634516 15.9994
3160 1 8.578230 6.747960 10.232100 -0.0105683 -0.0148775 0.0287084 1.008
3162 2 7.658600 7.011500 10.199700 -0.00442727 0.00337932 0.00467847 15.9994
1961 2 7.167130 0.950533 9.440340 -0.000605854 -0.00323676 -0.000480833 15.9994
2019 2 3.055140 5.324610 8.742220 -0.00221875 -0.00187273 -0.0082398 15.9994
2017 1 2.576120 6.134410 8.566160 0.00578486 -0.00254547 -0.0328714 1.008
261 2 6.441130 3.891260 10.869700 0.000257569 -0.00269192 0.00505014 15.9994
2018 2 1.729150 5.843560 8.228110 -0.00583843 -0.00474617 -0.0017157 15.9994
259 1 6.085370 3.770500 11.750100 -0.00391885 0.00222943 0.00402119 1.008
3996 2 7.868260 4.258190 12.279200 0.00184334 0.000185139 -0.00358419 15.9994
3450 2 4.544020 4.063810 6.982920 0.00369021 -0.00111193 -0.00684056 15.9994
1966 1 7.000430 7.477710 7.764830 -0.00071624 -0.00813238 -0.0176977 1.008
1967 2 7.375240 8.315230 7.492230 0.000331823 -0.00221521 0.002124 15.9994
4095 2 2.660800 2.207270 11.832300 0.0114787 0.00392521 -0.00522978 15.9994
4093 1 3.443940 2.720110 12.032200 0.00992553 0.00304885 0.00298725 1.008
4094 2 3.204670 3.232470 12.804500 0.00171713 0.00482931 -0.000769819 15.9994
4019 2 1.015480 0.791859 10.761600 -0.00850473 -0.000521363 0.00359384 15.9994
4018 1 1.709860 0.602754 11.392700 -0.012935 -0.0313113 -0.000753891 1.008
3136 1 4.511730 6.256090 12.088600 -0.00679563 -0.020333 0.00100574 1.008
3138 2 4.746610 5.916890 11.224900 0.00252672 -0.00240375 -0.00351466 15.9994
3137 2 5.332490 6.247720 12.581000 -0.00554779 0.000245047 -0.000706066 15.9994
3449 2 4.521640 2.732100 7.702600 -0.00872387 0.000194905 -0.00487295 15.9994
4020 2 1.334300 0.839278 12.240800 0.00476702 -0.00948342 0.000988534 15.9994
3448 1 4.868620 3.621840 7.767470 -0.00245862 -0.00226276 -0.00496783 1.008
1968 2 6.054890 7.598000 7.677010 -0.00123995 0.000168448 -0.000104429 15.9994
1712 2 1.237100 2.261970 7.358120 0.00296399 -0.00201469 -0.000593206 15.9994
1713 2 0.603210 3.469930 8.014560 0.00100807 -0.00360161 0.000368312 15.9994
2612 2 7.087820 0.914345 12.657100 -0.00564597 0.00434243 -0.00339043 15.9994
1711 1 0.671586 2.517910 8.086760 0.00240114 -0.00354862 -0.000515566 1.008
2224 1 0.162213 5.269870 7.792710 0.00319425 0.0214012 0.0011605 1.008
2613 2 8.202000 1.635140 11.928400 -0.00278468 0.00651968 0.00320244 15.9994
2433 2 8.527810 5.062760 9.101610 0.00574483 -0.00447303 0.00474094 15.9994
300 2 1.677050 5.924540 12.030900 0.00350639 -0.00360738 -0.00605299 15.9994
500 2 -0.206085 8.397230 11.284100 0.00371917 -0.000430604 -0.00246473 15.9994
1848 2 4.069870 7.557230 9.907380 0.00417652 -2.94592e-05 0.00123075 15.9994
1846 1 4.242190 8.496050 9.835610 -0.0111094 0.00274894 0.00119793 1.008
2805 2 4.122900 7.130190 13.869700 0.00317919 -0.000673963 0.00723411 15.9994
260 2 5.237100 3.349570 11.610500 -0.00209721 -0.000891775 0.00247814 15.9994
360 2 3.844670 1.463290 13.364200 -0.00751402 -0.00383751 0.00164382 15.9994
2225 2 -0.431307 5.204910 8.540870 0.00103053 0.00394506 -0.00208468 15.9994
1358 2 1.092510 7.736930 13.151200 0.000572385 0.00461895 -0.00400321 15.9994
2522 2 0.146866 -0.061690 7.078780 -0.00175314 0.00242477 0.00170839 15.9994
1357 1 0.996197 8.503000 13.717000 -0.0327716 -0.00191489 -0.000861779 1.008
1296 2 2.858320 -0.379824 9.948450 -0.00532265 -0.00438594 0.00260901 15.9994
3853 1 2.279190 4.305270 13.759500 0.00198522 -0.00979313 -0.00206491 1.008
3855 2 1.397010 4.643290 13.913500 0.00259603 -0.00798055 -0.00268143 15.9994
2982 2 -0.115354 2.031210 9.581760 -0.00204595 -0.00595861 -0.00765424 15.9994
298 1 0.784260 6.210120 12.224800 0.00687531 -0.0258907 0.0417028 1.008
499 1 -0.171181 8.450310 10.329000 0.0061092 -0.00339531 -0.00252589 1.008
1754 2 12.452600 6.112720 7.533190 0.00176237 0.00276175 0.0029063 15.9994
3868 1 11.012700 -0.273883 9.013070 0.00189336 -0.0122941 0.00525257 1.008
263 2 17.321100 6.999540 8.805080 -0.00249987 -0.000653835 -0.00135968 15.9994
3161 2 9.005080 7.429700 10.751000 -0.00270822 -0.000679658 0.00347641 15.9994
1521 2 16.199600 0.753966 6.993750 0.00297779 -0.00161858 0.00161217 15.9994
3994 1 8.799220 4.409990 12.116400 0.00201507 0.00213419 -0.00065696 1.008
3995 2 8.818010 4.999290 11.362300 0.00310792 0.00367799 0.000598894 15.9994
2432 2 9.757360 4.235690 8.791710 0.00408745 -0.00410266 -0.00267499 15.9994
2431 1 8.828580 4.158670 9.010020 0.00336447 -0.0041728 -0.0058563 1.008
4500 2 15.696200 5.725480 7.270740 0.00498517 0.00591003 -0.00430554 15.9994
1755 2 13.718600 5.427310 8.001490 0.00196405 0.00268137 0.0021462 15.9994
1753 1 13.081400 6.095190 8.254680 0.0123837 0.0157337 -0.00601754 1.008
3712 1 11.383400 2.357170 11.889600 -0.00073436 0.00167853 -0.018491 1.008
2211 2 15.966400 0.962995 12.212300 -0.00153711 0.00281016 0.00187893 15.9994
389 2 9.033930 6.924360 7.188070 -0.00427544 0.00124162 -0.00188804 15.9994
2353 1 11.707100 1.596180 6.851580 0.0065336 -0.0086032 0.00152852 1.008
2355 2 11.755400 2.090790 7.669660 0.00381455 -0.00260543 -0.00195634 15.9994
932 2 14.143800 2.838570 11.111200 -0.000234604 0.00520932 -0.00119948 15.9994
931 1 13.562900 3.595600 11.035200 0.0015997 0.00692167 0.00208073 1.008
2931 2 14.574000 0.168370 8.641420 0.000632831 0.00397063 0.00447959 15.9994
2060 2 11.709600 4.660950 8.993330 -0.00109816 0.00181961 0.00141398 15.9994
2059 1 11.679700 3.708250 8.905570 0.00478478 0.00205054 -0.003156 1.008
2061 2 12.033500 3.379910 9.732180 -0.00725295 0.000234597 0.0013016 15.9994
1118 2 9.963980 5.355430 13.175000 -0.000322471 0.00550884 -0.0110559 15.9994
2187 2 10.272600 7.472690 12.553400 0.0047673 -0.00224194 5.3788e-05 15.9994
457 1 8.757190 1.599450 9.936720 0.00103587 0.000614399 -0.00680956 1.008
458 2 9.018100 2.520050 9.911240 0.00772583 -0.000906951 0.00583568 15.9994
459 2 9.557420 1.117360 9.728280 0.000240444 -0.00271384 -0.00213799 15.9994
2209 1 15.289400 1.486600 11.783700 -0.0054721 -0.0289316 -0.0305202 1.008
933 2 13.835200 4.179010 11.743600 0.00138281 0.00209617 0.00611647 15.9994
2916 2 15.206400 4.460400 13.831400 -0.00467815 0.0031584 0.00986975 15.9994
2929 1 13.826000 0.014200 9.218410 -0.00129604 0.00652031 0.00263133 1.008
2930 2 14.126300 0.298257 10.081800 -2.6765e-05 -0.00118473 0.00470735 15.9994
3713 2 10.603800 2.910650 11.936000 0.0028012 0.00455494 0.00604048 15.9994
3714 2 12.090700 2.958030 11.655400 0.000291499 0.00489986 -0.007038 15.9994
2023 1 14.621100 7.249570 10.187200 0.0180248 0.00288354 -0.0206442 1.008
2025 2 13.988100 6.985070 9.519690 -0.00163708 0.00491745 -0.00277998 15.9994
2024 2 15.091700 6.444720 10.404000 -0.005676 -0.00671975 -0.00490139 15.9994
3399 2 15.706700 6.839620 13.040900 0.00101768 -0.00108511 0.00212591 15.9994
3398 2 14.494700 6.166950 13.649400 0.00464561 -0.00481161 0.00515814 15.9994
1117 1 10.415600 6.051030 13.652900 -0.00391765 0.0127976 -0.0182917 1.008
2210 2 14.468200 1.174410 12.163700 -0.00219873 -0.00306696 -0.00237197 15.9994
3869 2 11.854500 -0.131390 8.580330 -0.00270476 0.00486029 0.00203868 15.9994
1519 1 16.232300 0.579066 7.934270 -0.0127177 0.00355312 0.00310102 1.008
3397 1 15.203600 6.025580 13.021900 0.00839573 -0.00579571 0.00964769 1.008
4498 1 15.445900 4.808060 7.161450 -0.00575353 0.00897573 -0.00508737 1.008
2117 2 16.851600 -0.490926 9.778140 -0.0057491 -0.000151763 -0.00323351 15.9994
1171 1 12.895800 0.625262 13.729200 -0.0106528 -0.0167161 0.0100899 1.008
1172 2 12.608500 0.180209 12.932000 -0.00306417 -0.00384686 0.000197403 15.9994
290 2 12.974500 8.392590 11.903000 -0.00391134 0.00391422 0.00516239 15.9994
2185 1 10.218000 8.274290 12.033100 0.00405672 -0.00201454 0.000514031 1.008
264 2 17.641900 7.538650 7.427280 7.80311e-05 -0.011623 -0.00501798 15.9994
262 1 16.932500 7.157610 7.944710 -0.00881458 0.0186844 0.0050671 1.008
1940 2 17.725100 3.717490 9.130820 0.00126097 0.00602575 -0.000966207 15.9994
1173 2 12.240900 1.308690 13.871800 0.00127131 -0.00352356 0.0014556 15.9994
1520 2 16.723300 1.315620 8.298420 -0.00411915 -0.00319557 0.00510597 15.9994
4180 1 0.940418 17.157200 11.097800 -0.00344342 0.000592365 0.00108757 1.008
1070 2 2.340790 15.639400 7.562630 0.000375133 -0.00535057 -0.0108002 15.9994
584 2 3.385290 11.899700 7.376940 -0.00121837 0.00638266 0.00855318 15.9994
583 1 2.445030 11.996400 7.225960 -0.00143153 0.0184682 0.0178206 1.008
4294 1 0.130682 11.886100 10.705800 6.88717e-05 0.00166976 0.00103353 1.008
1847 2 4.239170 8.810400 10.739700 0.000353779 -0.000222049 0.00224386 15.9994
3578 2 4.212140 15.125100 8.078300 7.63819e-05 0.00814205 0.00429999 15.9994
1069 1 3.131150 15.860700 7.070090 0.00807239 0.00758253 0.00740931 1.008
4182 2 0.811505 16.573100 10.350500 -0.00183965 -0.00137287 0.00237427 15.9994
3948 2 2.576110 9.160740 9.093130 -0.00282582 -0.000541157 0.00109655 15.9994
585 2 2.044570 11.309200 7.758530 -0.00330101 0.00493106 -0.00112919 15.9994
3577 1 4.720500 14.541900 8.641930 0.00340586 -0.00620091 -0.0135861 1.008
3295 1 7.326140 17.502400 12.587000 0.00156925 0.00389415 0.017195 1.008
3946 1 1.953800 9.493210 8.446270 -0.00344427 0.00846298 0.00635651 1.008
3947 2 1.099510 9.409030 8.869740 -0.00337079 -0.000808537 0.00460729 15.9994
1745 2 5.417950 17.352900 8.939760 0.00216534 0.00524703 -0.00555992 15.9994
2530 1 2.746600 13.452000 9.957180 0.01188 -0.0155214 0.0173121 1.008
2532 2 2.640530 12.517500 9.779030 -0.00351517 -0.00917394 -0.00617128 15.9994
2531 2 3.521190 13.705600 9.455250 -0.00374061 -0.00814102 -0.00285223 15.9994
1024 1 3.327580 12.707900 12.991800 0.00361556 -0.0200198 -0.013541 1.008
1026 2 3.081770 13.107900 12.157700 -0.00155888 -0.00267034 -0.0036709 15.9994
4070 2 1.725300 14.710300 9.552040 -0.00329333 0.00489376 0.00358235 15.9994
4069 1 1.171170 15.328500 9.075640 0.022723 0.0164295 -0.0116014 1.008
4071 2 0.940115 14.870300 8.267610 0.00485722 0.00701564 -0.00110111 15.9994
1025 2 2.495140 12.456800 13.392100 0.00393864 0.00694683 0.00397669 15.9994
3579 2 5.611220 14.890600 8.606980 -0.000621233 0.00587532 0.00505552 15.9994
541 1 6.849620 15.961700 8.234410 0.0143902 0.0190849 0.0135655 1.008
543 2 7.745860 15.651200 8.105580 0.00790375 0.0062891 -0.000331491 15.9994
2747 2 6.046490 10.355800 12.869000 -0.000228366 -0.00198123 -0.00102485 15.9994
2746 1 5.098070 10.256000 12.786700 -0.00203838 -0.00418257 0.0223045 1.008
2748 2 4.754490 11.144900 12.876900 0.000884042 -0.000169671 -0.00587098 15.9994
542 2 6.634270 16.417600 7.420780 -0.0029113 -0.00484007 0.00483656 15.9994
1068 2 8.193990 11.121600 10.968200 -0.00261071 0.00464082 -0.00612947 15.9994
1066 1 8.558170 11.911300 10.568400 -0.00044606 0.00888133 0.00427251 1.008
169 1 8.582190 14.851000 11.706100 0.00290682 0.000520621 -0.00422487 1.008
171 2 7.939490 15.560200 11.721500 0.00128733 -0.00108414 0.00267569 15.9994
170 2 8.146480 14.142500 11.232500 -0.000442757 -0.000524174 0.000413284 15.9994
1340 2 7.625960 16.593700 14.095500 0.000893881 0.00332649 -0.00280526 15.9994
3822 2 4.876210 12.754500 13.932800 0.00625229 -0.00152325 -0.00648724 15.9994
482 2 8.298960 9.958610 13.889200 0.00653873 0.0013663 -0.002189 15.9994
481 1 7.677580 10.585400 13.518800 0.00217526 0.00290686 0.00773375 1.008