LAMMPS data file via write_data, version 29 Sep 2021, timestep = 40000

4500 atoms
2 atom types
3000 bonds
1 bond types
1500 angles
1 angle types

-0.5195623726124374 36.07881237261242 xlo xhi
-0.5195623726124374 36.07881237261242 ylo yhi
-0.5186926172594504 36.01870261726043 zlo zhi

Masses

1 1.008
2 15.9994

Pair Coeffs # lj/cut/tip4p/long

1 0.155 3.1536
2 0 0

Bond Coeffs # harmonic

1 450 0.9572

Angle Coeffs # harmonic

1 55 104.52

Atoms # full

4110 1370 2 0.52 4.823362356858542 4.8518876810338165 4.42605611085398 1 1 0
4108 1370 1 -1.04 4.672293386489017 4.032749151421773 3.9544396612929944 1 1 0
4109 1370 2 0.52 5.289716824101041 3.4139231080667165 4.3444069249868535 1 1 0
1607 536 2 0.52 6.270786648670582 2.699723919390495 6.7451979465999035 0 0 1
2127 709 2 0.52 2.7479977054533364 4.628295304049716 4.275644860891094 0 1 0
2126 709 2 0.52 2.7915899846871715 6.126590951613539 4.0632653480826395 0 1 0
2125 709 1 -1.04 2.1842427561259825 5.395571334752345 4.177157857595586 0 1 0
697 233 1 -1.04 7.317197165939572 4.498980576425689 1.1005509637764666 1 0 0
699 233 2 0.52 6.455548202618075 4.459812574086284 0.6855102770965579 1 0 0
698 233 2 0.52 7.248484853076535 5.21784373962158 1.728839281876532 1 0 0
975 325 2 0.52 4.583844096439641 6.3194864855866975 0.02449043823428771 0 1 0
973 325 1 -1.04 4.102642022879548 7.116879828462945 0.24548876659473018 0 1 0
3875 1292 2 0.52 4.9397165287094955 1.6498893720661232 0.9896395238157492 0 1 0
3733 1245 1 -1.04 2.1713739408023915 4.089756087886832 -0.40190249952572454 0 0 1
396 132 2 0.52 7.072887688102698 6.779403201761571 4.026592477043962 1 1 0
3720 1240 2 0.52 3.6303272792120374 4.598770777349315 0.6958827747243517 0 1 0
1655 552 2 0.52 6.513986254664521 1.8415823323605318 4.145092571790561 0 1 0
1654 552 1 -1.04 6.120417870235199 1.7576556746658116 3.276592667987522 0 1 0
1656 552 2 0.52 6.645154508071885 2.331908555601325 2.7188141011268767 0 1 0
3718 1240 1 -1.04 4.584240480163809 4.522057296086372 0.7157947520863598 0 1 0
3719 1240 2 0.52 4.783098629043313 4.231369117686818 1.6058439976694152 0 1 0
2750 917 2 0.52 4.882810660617645 7.066769917321852 2.2274393246881874 1 0 0
2749 917 1 -1.04 5.499524150626264 7.556287900707488 2.7717448043440953 1 0 0
2751 917 2 0.52 6.05409429627784 8.022481528695495 2.146167235392514 1 0 0
3874 1292 1 -1.04 4.835870466243875 1.7921465746501752 0.04878314602828542 0 1 0
3876 1292 2 0.52 4.9664042835287745 2.733249254484802 -0.06748597520825436 0 1 0
1606 536 1 -1.04 6.72902820982141 2.5364674293572653 5.920823134941952 0 0 1
3484 1162 1 -1.04 5.263065433321504 6.01965990490644 5.744542620038251 1 -1 0
3082 1028 1 -1.04 3.4270022214425917 7.980222120069826 6.3333782641302845 1 0 0
3794 1265 2 0.52 0.9433391940044475 -0.10383799240842992 -0.09131867146155324 1 0 1
3486 1162 2 0.52 4.639860964110491 6.697093663586906 6.007090772108449 1 -1 0
1880 627 2 0.52 3.093969005855176 2.284533301701315 5.197972628146914 1 1 1
1881 627 2 0.52 2.739623136819313 1.3794276507581023 6.358626735754403 1 1 1
3485 1162 2 0.52 6.121666777147739 6.393954599693273 5.941872429834479 1 -1 0
548 183 2 0.52 0.07593749879079997 7.875127771905611 2.4287568994891666 0 1 0
1410 470 2 0.52 0.5596638849584806 5.836758841032932 5.0769296676916325 1 0 0
1094 365 2 0.52 1.1862603595015255 5.7452404055760296 1.0151928552383425 1 1 0
549 183 2 0.52 0.2177875327762557 8.302393746461899 3.8741694864770637 0 1 0
3108 1036 2 0.52 5.901463391131252 -0.5106924659589555 2.6980629164111694 1 1 1
1608 536 2 0.52 7.5753467879841185 2.1750544643181122 6.184181014942265 0 0 1
395 132 2 0.52 8.502321882985727 6.3248464469850205 3.821674857097867 1 1 0
394 132 1 -1.04 7.6178358684997844 5.993971891502186 3.978002585645333 1 1 0
2453 818 2 0.52 3.898397783797826 8.259528770447426 3.4017542699846994 0 0 0
3793 1265 1 -1.04 0.4340931611655635 0.5925262619125092 -0.5060199414643116 1 0 1
1879 627 1 -1.04 2.4663964275928 2.181493210212876 5.913351715455992 1 1 1
872 291 2 0.52 0.8338209074535685 -0.14199925131603658 3.3464049001269536 1 0 0
547 183 1 -1.04 -0.3716880336906886 8.359883485239118 3.122208499142081 0 1 0
871 291 1 -1.04 -0.07386638784366917 -0.41917418803381223 3.221867080925386 1 0 0
1408 470 1 -1.04 -0.3902693864945664 5.800642881672514 5.188975449700544 1 0 0
974 325 2 0.52 4.3572872022299975 7.7457651233441105 -0.4297082109724147 0 1 0
1093 365 1 -1.04 1.1131262425181052 6.699365331939475 0.9921957722710161 1 1 0
1095 365 2 0.52 2.002504040178865 7.003954402404549 0.8120167746566463 1 1 0
3979 1327 1 -1.04 11.063381646232516 0.3893111892977611 2.261441811883704 0 0 0
3981 1327 2 0.52 10.73096781689393 1.2597596455863067 2.0422333015348926 0 0 0
3980 1327 2 0.52 10.73821517156167 0.22409897547504687 3.146429680814082 0 0 0
2711 904 2 0.52 12.612988422373233 5.819407027036182 0.9709931859112724 0 0 1
2710 904 1 -1.04 13.277708226314468 5.915303747311202 0.28894975526420535 0 0 1
441 147 2 0.52 16.9161497917977 5.063978156013493 -0.4082803116449794 1 0 0
341 114 2 0.52 14.275737816383506 3.3992810975421337 6.492101330558076 0 1 0
340 114 1 -1.04 13.888666126615954 2.9154512365648286 5.762501431567421 0 1 0
2947 983 1 -1.04 9.964407832376756 3.893478730847282 4.4196325555506215 0 0 0
2949 983 2 0.52 10.390300784483221 4.180943804881856 3.612036824657784 0 0 0
2948 983 2 0.52 9.04601606658071 4.138646680915938 4.307022250617378 0 0 0
2664 888 2 0.52 14.385984217215858 3.950407319529567 3.04272188503247 0 0 0
3709 1237 1 -1.04 15.370416101734074 2.8509666585059623 2.0360334691675366 0 1 0
3710 1237 2 0.52 16.225213653099306 2.7189752065689454 2.446071568367548 0 1 0
553 185 1 -1.04 14.041283637525295 0.40235241349306433 2.190658896603268 0 0 0
3711 1237 2 0.52 14.889239935652116 2.0440140683077046 2.2191423285026097 0 1 0
2662 888 1 -1.04 14.194301556187423 4.644834537330087 3.67300788094138 0 0 0
554 185 2 0.52 13.09393326369972 0.3474491777984965 2.3161369581232374 0 0 0
2663 888 2 0.52 14.42168590924784 5.454042304907519 3.2150657613720552 0 0 0
342 114 2 0.52 13.649247501474472 3.5902145377081545 5.127202250578241 0 1 0
32 11 2 0.52 15.865705733843168 1.9195880974213075 0.4718396468507931 0 1 1
1380 460 2 0.52 10.931368064018159 7.1695362423948295 4.484691366195815 0 0 1
1378 460 1 -1.04 10.261666969370872 7.358500094147865 3.827405319973258 0 0 1
2819 940 2 0.52 15.82923530835922 4.769297397448131 4.282995110492475 0 -1 0
2818 940 1 -1.04 16.758047676174584 4.623617411074585 4.462763758936573 0 -1 0
2820 940 2 0.52 17.17817037079459 5.4554096700412 4.2440164174934285 0 -1 0
1379 460 2 0.52 10.352230948426266 8.29569377724738 3.655074225692447 0 0 1
4213 1405 1 -1.04 8.984901892397815 0.9876104794101332 6.1315719864916405 1 1 0
3393 1131 2 0.52 13.410130716403835 7.136140063347897 5.78961336991193 0 0 0
3391 1131 1 -1.04 12.924973867858233 6.343823706969841 5.559201860379304 0 0 0
3392 1131 2 0.52 13.596692559826513 5.727375935535334 5.267623425041822 0 0 0
1153 385 1 -1.04 14.847194620287299 7.1375103025213935 2.858499819539148 1 1 0
1154 385 2 0.52 14.478409715861373 7.918924149092041 2.4466479837350246 1 1 0
390 130 2 0.52 9.596036583066118 6.273056631412411 5.942380249383599 1 1 0
4499 1500 2 0.52 15.915442539910678 4.522963662169306 6.377564325958332 0 0 0
312 104 2 0.52 15.165044367393195 0.8772308639107578 4.605799562812619 0 1 0
1291 431 1 -1.04 11.128221659974425 5.57425899318692 1.8560391155949723 0 0 1
1292 431 2 0.52 10.68881250757862 5.8631133615473425 1.0562175163180452 0 0 1
2421 807 2 0.52 16.397440413851882 6.9250954797229625 2.9499778544925506 0 0 1
1293 431 2 0.52 10.897287368119736 6.2351658824364025 2.5088049821873857 0 0 1
310 104 1 -1.04 15.90140407037004 0.6656903918130435 5.1796086395067125 0 1 0
311 104 2 0.52 16.50999866801095 1.3960551307753766 5.068200364218116 0 1 0
2712 904 2 0.52 13.87512131096954 6.581865191203783 0.6281035371961641 0 0 1
2983 995 1 -1.04 14.986929120962687 8.569857170644102 5.926321126757167 0 0 0
1155 385 2 0.52 14.974243277883387 7.386067865052522 3.774092314436095 1 1 0
555 185 2 0.52 14.31084087351815 -0.49647899450165867 2.0017863561795295 0 0 0
4215 1405 2 0.52 9.690352288198586 1.5765770553800453 6.399321779124263 1 1 0
4214 1405 2 0.52 9.00634145101934 0.27934397186121823 6.775101892254051 1 1 0
3645 1215 2 0.52 9.474276199522798 -0.32783672702038136 4.955979189853957 1 1 0
388 130 1 -1.04 9.772088691086278 6.964897214452874 6.580027567985262 1 1 0
2354 785 2 0.52 12.384985009680193 1.9825434186057842 6.297128721267172 1 1 0
204 68 2 0.52 16.802604464336728 -0.21313567086743285 3.9538550691259675 1 1 0
2419 807 1 -1.04 17.324823279006466 6.948106308696457 3.185908698528729 0 0 1
2985 995 2 0.52 15.732725631835839 8.349551322639556 6.4844293041783825 0 0 0
2420 807 2 0.52 17.75845090696445 6.433363514799201 2.505292230609842 0 0 1
203 68 2 0.52 17.51465308753412 -0.1589580820137334 2.6189592908545123 1 1 0
11 4 2 0.52 8.985226870683967 3.4619503890253966 -0.2236457782831605 0 1 1
439 147 1 -1.04 17.543270686233594 5.737812517232191 -0.14579511700932893 1 0 0
910 304 1 -1.04 16.486577740368084 8.309747714694534 0.7788676635986403 -1 1 0
31 11 1 -1.04 15.63815097950732 1.721810525393584 -0.4366396901635226 0 1 1
911 304 2 0.52 16.80806916748711 8.22323137802018 1.6763029123923479 -1 1 0
912 304 2 0.52 16.814397621202936 7.530280123337946 0.33031862530496203 -1 1 0
716 239 2 0.52 14.431398059237978 4.511558311927513 -0.2779937997467148 1 0 1
33 11 2 0.52 15.386076794975471 0.7984672185256834 -0.42534441881422264 0 1 1
1516 506 1 -1.04 9.229238275525478 6.944112311520948 0.02750834753921732 0 0 1
1517 506 2 0.52 10.008059121199341 7.165999649654938 -0.48282089865353406 0 0 1
2454 818 2 0.52 2.798514933518424 8.687005298171366 4.350130105655663 0 0 0
2922 974 2 0.52 8.256293549074929 8.765957250294012 1.0037250734353544 0 0 0
2921 974 2 0.52 7.092374967838194 9.719027437907059 1.173566015240768 0 0 0
2920 974 1 -1.04 7.306677570204131 8.82708656843919 0.9001657226438342 0 0 0
2883 961 2 0.52 5.170545033471175 17.203769770464568 3.2929556851688817 1 1 1
1071 357 2 0.52 2.9870922713284074 16.760376210867772 6.7767132666618695 0 0 0
351 117 2 0.52 2.6690087516728047 17.24442735966944 0.8568938072077578 0 0 1
3662 1221 2 0.52 0.4318103370014443 9.931596350155964 -0.2583878377796998 2 0 0
3083 1028 2 0.52 3.529560360591485 8.915696689849703 6.508309671800466 1 0 0
2452 818 1 -1.04 3.0805863461308127 8.755615155579745 3.4380115576295562 0 0 0
2096 699 2 0.52 4.238706311975932 11.103300425966701 3.8914852594520095 1 0 1
1971 657 2 0.52 6.5791841580014845 11.540859898397787 1.7836501664300919 0 1 0
1969 657 1 -1.04 7.534263369594424 11.568240602991256 1.8411465715261992 0 1 0
1820 607 2 0.52 6.196691892077418 15.148015027618609 4.638967872702223 0 1 0
1819 607 1 -1.04 5.804200917943282 15.715804389171693 3.975795258573459 0 1 0
898 300 1 -1.04 2.374377095606334 13.267426628513514 2.6430383930964267 0 1 0
900 300 2 0.52 3.0005722368280425 13.750573901798639 2.103890734817664 0 1 0
506 169 2 0.52 5.915804306202723 12.42908999394164 6.5887282620095 0 0 0
505 169 1 -1.04 5.24172185630038 11.754273736320245 6.669150331017406 0 0 0
507 169 2 0.52 5.72304725952613 10.927988536498676 6.626600774434541 0 0 0
899 300 2 0.52 2.9153542163531254 12.805632081037075 3.28360173168953 0 1 0
3591 1197 2 0.52 1.0995759142641979 15.408606203799675 4.401113375011643 0 0 0
3589 1197 1 -1.04 0.6449554944666245 16.00098893621059 3.8022521120763475 0 0 0
2095 699 1 -1.04 3.9438791496830965 11.965206261289506 4.185470149218223 1 0 1
2097 699 2 0.52 4.099372083621562 11.96276471164369 5.129952984599859 1 0 1
3636 1212 2 0.52 0.6931349784005256 12.730418701885005 2.2157778082199973 1 -1 1
3590 1197 2 0.52 0.2898564125721125 16.68731455503806 4.367135840801793 0 0 0
2867 956 2 0.52 1.3715977151376497 15.614129638469441 1.8082193649123304 0 0 1
2868 956 2 0.52 1.2451492339468835 15.13443410229774 0.3779053553466862 0 0 1
1821 607 2 0.52 6.184432361529217 15.417981224363414 3.1493829814307865 0 1 0
2866 956 1 -1.04 1.8744168217609636 15.495280392810999 1.0024404604844768 0 0 1
1477 493 1 -1.04 7.896280156759714 13.687772024065199 5.564745459361578 0 1 0
1479 493 2 0.52 8.507925239678473 13.505105950604316 4.851474656547046 0 1 0
1970 657 2 0.52 7.723457623338667 12.3836496560511 2.3054152981686555 0 1 0
965 322 2 0.52 3.180168388238363 13.955010071966685 0.2233151902205072 0 0 0
405 135 2 0.52 0.8628327757847039 13.69168758156632 6.447717198041504 1 1 0
403 135 1 -1.04 0.19313704002329887 14.37291683481419 6.3871683250351285 1 1 0
1478 493 2 0.52 8.203310214719073 13.143159047442014 6.2895634290637 0 1 0
964 322 1 -1.04 4.072147468532431 13.620063759708406 0.13157573184882346 0 0 0
426 142 2 0.52 1.8572745015773398 10.873312276417234 1.688539887575293 0 0 0
1502 501 2 0.52 6.695863619295043 15.001671136488842 0.7182646200097123 1 -1 1
1501 501 1 -1.04 6.0695114207586895 15.030760659096451 1.4414994111136374 1 -1 1
1503 501 2 0.52 5.2994294065428225 14.568330163580185 1.110797780942548 1 -1 1
713 238 2 0.52 1.310449621045427 9.213037956802603 6.514549005135526 0 0 0
3635 1212 2 0.52 -0.16498341427114147 13.238637702447717 1.076812723854419 1 -1 1
1338 446 2 0.52 -0.4702768505821893 17.775583536804564 6.510326349055923 1 1 1
712 238 1 -1.04 0.961787306982965 8.927019700304127 5.670238642945068 0 0 0
798 266 2 0.52 4.4226379665875495 11.620869781223472 0.5959185438445216 0 0 1
797 266 2 0.52 4.231431694043681 10.205703013824346 1.0985499928876965 0 0 1
796 266 1 -1.04 4.792254184580979 10.975004257898274 1.1979761965457394 0 0 1
425 142 2 0.52 2.2977408580868106 9.435676681962928 1.8648591381395485 0 0 0
424 142 1 -1.04 2.0257906178087146 10.067866991752947 1.1995694876712089 0 0 0
3634 1212 1 -1.04 -0.0052214592450808865 12.465008641722369 1.6173735753110017 1 -1 1
714 238 2 0.52 0.04094629363042066 8.73222468688511 5.844418351507645 0 0 0
2882 961 2 0.52 4.370191867139833 17.7518726669677 2.1306677622485193 1 1 1
2283 761 2 0.52 16.96801411050077 14.08470729525732 0.24546450161233663 0 -1 0
2730 910 2 0.52 10.058525834529268 13.523415908353474 2.6052573585485574 0 0 0
2728 910 1 -1.04 9.861159460179795 13.482441870000075 3.540992087228197 0 0 0
318 106 2 0.52 10.1012226123709 10.593931350329017 3.095925531037637 1 0 0
1224 408 2 0.52 15.354462824367348 16.245036530573014 3.5665157167071917 0 0 0
2984 995 2 0.52 15.103808107773762 9.498327605407237 5.725040739702757 0 0 0
2928 976 2 0.52 11.624154176977513 15.83628571134023 4.315210197232801 0 -1 0
113 38 2 0.52 8.898847480642809 15.722017186798812 4.784452287504586 0 -1 0
1456 486 1 -1.04 16.42785309327128 11.381888900086297 4.932651562109241 0 0 0
2729 910 2 0.52 10.69586486730518 13.669089452827304 3.970714559459281 0 0 0
3837 1279 2 0.52 14.460815642760885 10.27955283683656 2.2326874787627635 0 0 0
3836 1279 2 0.52 13.470734049247195 9.64735620744374 1.2777209601098822 0 0 0
432 144 2 0.52 13.644684699850838 13.187582337122992 1.5690850351465402 0 0 0
3607 1203 1 -1.04 12.639047565513215 10.561009108248593 5.044977636372579 1 0 0
3608 1203 2 0.52 12.431100480227974 10.13486861922344 5.876478768864158 1 0 0
430 144 1 -1.04 13.50702525641697 13.544632878973813 2.4464655843938514 0 0 0
431 144 2 0.52 13.515570800100308 14.493843105554575 2.3233446705016334 0 0 0
3835 1279 1 -1.04 13.797998798603187 9.591341898150338 2.1754915438245317 0 0 0
3819 1273 2 0.52 11.127572896764972 14.642955686200972 0.927717001585345 0 0 0
3818 1273 2 0.52 11.36746513042386 13.149281948593144 0.98503779701829 0 0 0
772 258 1 -1.04 12.183376447388556 13.518644715041761 4.955278779784056 0 0 0
773 258 2 0.52 12.626912167127356 13.998488235095767 4.25580890796829 0 0 0
3817 1273 1 -1.04 10.669293397025687 13.8027230540335 0.9425784940956591 0 0 0
774 258 2 0.52 12.084657903732117 14.158669052137393 5.660158441189922 0 0 0
3609 1203 2 0.52 12.557475453523251 11.497000422486295 5.228002471346077 1 0 0
1458 486 2 0.52 16.456278337040512 11.509487529121367 3.984420348013739 0 0 0
2389 797 1 -1.04 11.828558942947573 16.561581926265287 1.2003994395202189 1 0 1
2390 797 2 0.52 12.650419563185164 16.77251879496982 0.757361519784437 1 0 1
1223 408 2 0.52 15.893061911547807 16.380877833672084 4.974831503538744 0 0 0
1222 408 1 -1.04 15.09555025267806 16.178645150076488 4.485639378037377 0 0 0
1457 486 2 0.52 15.720979348777263 11.954338480969335 5.230750248271795 0 0 0
317 106 2 0.52 11.019668611297176 10.321419004644678 4.2681410232933015 1 0 0
316 106 1 -1.04 10.14075986036283 10.137706171876163 3.9364772739820477 1 0 0
1858 620 1 -1.04 12.947574793705725 12.288544479112604 -0.18971442905994598 -1 0 1
2927 976 2 0.52 13.088875297260651 16.20228448497162 4.2032632040839175 0 -1 0
2391 797 2 0.52 12.06109754808386 16.514200539429112 2.1277141872206697 1 0 1
1649 550 2 0.52 15.915120943767189 12.287958405462456 1.98866356156374 1 0 0
1648 550 1 -1.04 15.845716953797396 11.352274190185168 2.178162837175023 1 0 0
1860 620 2 0.52 12.642838777237277 11.387931314755054 -0.30045614862769265 -1 0 1
2129 710 2 0.52 9.46251478505928 8.757592052669253 6.5341598743485205 0 0 0
2130 710 2 0.52 9.233458762228201 10.068941894175051 5.813195157205039 0 0 0
2281 761 1 -1.04 17.106309928785794 13.423717591606103 0.9238439811899188 0 -1 0
112 38 1 -1.04 9.767738724850464 16.07705877377968 4.97208308789029 0 -1 0
2128 710 1 -1.04 9.10006126139815 9.635104674261216 6.655941983594632 0 0 0
1132 378 1 -1.04 14.515166237091636 13.173674004451597 6.771407655189277 0 1 0
1133 378 2 0.52 14.051871916114878 13.119809971874835 5.935531541075915 0 1 0
123 41 2 0.52 15.889539885561845 9.487486018586203 -0.3984866379496555 1 1 0
3414 1138 2 0.52 10.269798404288052 16.731240019082442 0.2637990135538646 0 1 1
3376 1126 1 -1.04 17.659665155272954 16.94556853886831 1.0195716673111943 0 0 0
2282 761 2 0.52 17.733917842721432 12.81218180964035 0.5386633304026592 0 -1 0
3412 1138 1 -1.04 9.423339626491742 16.99254397969427 -0.09877458953956562 0 1 1
1048 350 1 -1.04 12.67176652146354 9.458492550960878 -0.29232824371436505 0 1 0
2926 976 1 -1.04 12.313681354393374 16.011994934534002 3.6749677583945464 0 -1 0
1650 550 2 0.52 16.752264270810997 11.047656039079918 2.218307376438338 1 0 0
114 38 2 0.52 9.59684666099923 16.907155871593787 5.417017409687635 0 -1 0
3413 1138 2 0.52 8.97976621846828 17.43710768057056 0.6236086796172077 0 1 1
1839 613 2 0.52 8.952554500838925 13.979625224221644 -0.09715233821711174 0 1 1
89 30 2 0.52 17.671135593755835 12.182008331059782 6.377324256278686 1 1 0
4225 1409 1 -1.04 14.030488960431294 16.935976516630795 -0.3763102775021937 0 0 1
3377 1126 2 0.52 17.528461506876635 16.277727073793333 0.34651504252097576 0 0 0
3084 1028 2 0.52 2.894677194144557 7.657085121593297 7.060320067528415 1 0 0
4168 1390 1 -1.04 3.2133176349562462 -0.15159616161642137 7.061528293156626 0 0 0
2545 849 1 -1.04 5.7977950705728265 -0.19025298583099598 11.646414276306992 0 0 0
3863 1288 2 0.52 8.605820611313751 -0.42746519148969836 13.059415982829869 0 1 0
299 100 2 0.52 0.23122613391018254 5.487862489622173 11.926959582839974 1 0 0
2226 742 2 0.52 -0.4061607821995599 5.486321156318152 7.0535680398107266 0 1 0
2050 684 1 -1.04 5.813981144656329 5.591601462433832 9.425539228060972 0 0 0
2611 871 1 -1.04 7.958169690081517 1.2907726771712948 12.787612306863476 0 1 0
1960 654 1 -1.04 6.346347550389362 0.6296046588348514 9.066766624225584 0 0 0
2051 684 2 0.52 5.65818494873066 4.781407134813775 8.940209920448735 0 0 0
2052 684 2 0.52 5.964068217214597 6.251673453042633 8.748774366484497 0 0 0
1962 654 2 0.52 5.847655205007668 0.31265221258087944 9.819813058033839 0 0 0
3160 1054 1 -1.04 8.578229355959392 6.747960859091267 10.23213120872488 0 0 0
3162 1054 2 0.52 7.658596010957469 7.011502130998264 10.199691283290086 0 0 0
1961 654 2 0.52 7.167126533829618 0.9505332917063768 9.440341935168364 0 0 0
2019 673 2 0.52 3.05514452815873 5.324613249848345 8.742224081562249 1 0 0
2017 673 1 -1.04 2.57611908927437 6.1344075605791835 8.566156926165188 1 0 0
261 87 2 0.52 6.441126096453522 3.89126485577156 10.869675279198361 1 1 0
2018 673 2 0.52 1.7291455241303475 5.8435617866815575 8.22810906601353 1 0 0
259 87 1 -1.04 6.085367963082053 3.7705029809473483 11.750064147897294 1 1 0
3996 1332 2 0.52 7.8682638967911736 4.258185520819949 12.27918969066209 1 1 0
3450 1150 2 0.52 4.544020034164052 4.063808980508581 6.982917221090737 0 0 0
1966 656 1 -1.04 7.000429607370702 7.477713534073968 7.7648339368819785 0 0 0
1967 656 2 0.52 7.375236446667257 8.315233649008075 7.4922321571789 0 0 0
4095 1365 2 0.52 2.6608042595747143 2.207270359438764 11.832323278760995 1 1 0
4093 1365 1 -1.04 3.44393582301726 2.720109746840678 12.032154600303098 1 1 0
4094 1365 2 0.52 3.2046703267397905 3.232472167462603 12.804468404546903 1 1 0
4019 1340 2 0.52 1.0154774591256643 0.7918589891500843 10.761620240836246 1 1 0
4018 1340 1 -1.04 1.7098634614934738 0.6027536275514067 11.392729646510324 1 1 0
3136 1046 1 -1.04 4.51172643380509 6.256092905841256 12.088593961192386 -1 0 0
3138 1046 2 0.52 4.746608491792599 5.916894972692208 11.224876981515033 -1 0 0
3137 1046 2 0.52 5.3324910490281665 6.247723185109098 12.5810441964168 -1 0 0
3449 1150 2 0.52 4.5216402507172795 2.7321011870484613 7.702603743063124 0 0 0
4020 1340 2 0.52 1.334298175261072 0.8392776324361375 12.240809212878045 1 1 0
3448 1150 1 -1.04 4.868622284716521 3.6218357142878967 7.767471139494369 0 0 0
1968 656 2 0.52 6.054886940275574 7.597996373052798 7.67701057239493 0 0 0
1712 571 2 0.52 1.2371035399010128 2.2619705528073597 7.358122846530341 1 1 0
1713 571 2 0.52 0.603210259544341 3.4699273609489203 8.014563895339268 1 1 0
2612 871 2 0.52 7.087824662802423 0.9143446311905343 12.657100622751821 0 1 0
1711 571 1 -1.04 0.6715855297883263 2.517906459261913 8.086764069647366 1 1 0
2224 742 1 -1.04 0.16221283081723736 5.269865080030269 7.792709462722666 0 1 0
2613 871 2 0.52 8.202003522953893 1.6351389117196833 11.928433164629606 0 1 0
2433 811 2 0.52 8.527805075887867 5.062760623577359 9.101608991885485 0 0 0
300 100 2 0.52 1.6770479888243093 5.924540432775037 12.030915004029602 1 0 0
500 167 2 0.52 -0.20608549374904317 8.397226671871163 11.28410899694198 -1 1 0
1848 616 2 0.52 4.069867580160638 7.557225430734933 9.90737914973347 0 0 0
1846 616 1 -1.04 4.242193650159772 8.496046600441433 9.83561302325606 0 0 0
2805 935 2 0.52 4.122896714655411 7.130189397812837 13.86967193913419 1 0 0
260 87 2 0.52 5.237098752595571 3.349569339206044 11.610471684665773 1 1 0
360 120 2 0.52 3.8446659571548882 1.4632923830177 13.364168926091162 1 0 0
2225 742 2 0.52 -0.4313073120039946 5.204913756114394 8.540871881978699 0 1 0
1358 453 2 0.52 1.0925088246656522 7.736933945568251 13.151184985140212 0 1 0
2522 841 2 0.52 0.14686558226398297 -0.061689677829185614 7.078778016202286 1 0 0
1357 453 1 -1.04 0.9961965718699531 8.503004306648268 13.716951714310593 0 1 0
1296 432 2 0.52 2.8583162852357 -0.37982433607818983 9.948453629372251 0 0 0
3853 1285 1 -1.04 2.2791912224292323 4.305271502373081 13.759451285510098 0 -1 0
3855 1285 2 0.52 1.3970122054620357 4.643291698479543 13.913510913728977 0 -1 0
2982 994 2 0.52 -0.11535380042829993 2.031209892379562 9.581755156712376 1 0 0
298 100 1 -1.04 0.7842596793414155 6.2101195127356945 12.224836285841324 1 0 0
499 167 1 -1.04 -0.17118136082387686 8.450307368622823 10.32901948221726 -1 1 0
1754 585 2 0.52 12.4525819329282 6.112716168401131 7.5331903687893735 0 0 0
3868 1290 1 -1.04 11.012723099273767 -0.2738826361518303 9.013068770365258 0 1 1
263 88 2 0.52 17.32106587229759 6.999541730240219 8.805079475916784 0 0 0
3161 1054 2 0.52 9.005083217361161 7.42970010731968 10.751033143999127 0 0 0
1521 507 2 0.52 16.19960481681536 0.7539661629106993 6.993752203552012 0 0 0
3994 1332 1 -1.04 8.799221328063096 4.409986705844753 12.1163815170815 1 1 0
3995 1332 2 0.52 8.818010823539568 4.999294886152012 11.362329354772626 1 1 0
2432 811 2 0.52 9.757361607165054 4.2356887010275575 8.791709067552409 0 0 0
2431 811 1 -1.04 8.828577967806467 4.158670196569434 9.01002292700905 0 0 0
4500 1500 2 0.52 15.696150747096807 5.725481973575701 7.270736208697061 0 0 0
1755 585 2 0.52 13.718604426170893 5.4273127778483445 8.00148987829217 0 0 0
1753 585 1 -1.04 13.081368846282617 6.095186950389964 8.25468297728245 0 0 0
3712 1238 1 -1.04 11.383361756386465 2.3571687010160334 11.889619822081785 0 1 0
2211 737 2 0.52 15.966434527084518 0.9629952673782383 12.21225561370056 1 0 0
389 130 2 0.52 9.033933252160265 6.92435794476295 7.188069470815118 1 1 0
2353 785 1 -1.04 11.707092433707256 1.5961834713559335 6.851582945348716 1 1 0
2355 785 2 0.52 11.755439130523511 2.0907948077121357 7.669662442008357 1 1 0
932 311 2 0.52 14.143770470916996 2.838570853552584 11.111199606396509 0 0 0
931 311 1 -1.04 13.562936248326055 3.5955983354628396 11.035220415167618 0 0 0
2931 977 2 0.52 14.574036899068536 0.1683695323382118 8.641419199278886 0 1 0
2060 687 2 0.52 11.709571992283609 4.660953361181331 8.993325943899098 0 1 0
2059 687 1 -1.04 11.679736570587892 3.708251828152825 8.905567886848056 0 1 0
2061 687 2 0.52 12.033473909473068 3.379909923003583 9.732183473684767 0 1 0
1118 373 2 0.52 9.963977255336909 5.355434440395813 13.1749645287762 0 0 0
2187 729 2 0.52 10.272558382452603 7.472687035808106 12.5533998695446 0 1 0
457 153 1 -1.04 8.75719157584625 1.5994508444239879 9.936722124179752 0 0 0
458 153 2 0.52 9.0181006153784 2.5200533730502657 9.911240809902145 0 0 0
459 153 2 0.52 9.557422566790436 1.117359247806604 9.728275743536228 0 0 0
2209 737 1 -1.04 15.289363400896994 1.486598713908568 11.78371627960774 1 0 0
933 311 2 0.52 13.835177513929594 4.179014067414407 11.743558340888104 0 0 0
2916 972 2 0.52 15.206353122813542 4.460397128953955 13.831394654897077 1 0 0
2929 977 1 -1.04 13.826012364624283 0.01419991960032895 9.218413884157101 0 1 0
2930 977 2 0.52 14.126317225368362 0.2982568508240245 10.08175651048645 0 1 0
3713 1238 2 0.52 10.603787387119793 2.910653746563573 11.935987344527001 0 1 0
3714 1238 2 0.52 12.090702351289071 2.9580330833200588 11.655391051685772 0 1 0
2023 675 1 -1.04 14.621133805779456 7.249569389427848 10.18722519981042 0 0 0
2025 675 2 0.52 13.988148753507412 6.985070999087823 9.51969065755235 0 0 0
2024 675 2 0.52 15.091706982838659 6.4447191308935246 10.404040297000723 0 0 0
3399 1133 2 0.52 15.706736127447117 6.83962473477057 13.040884465255743 1 1 0
3398 1133 2 0.52 14.494680263535548 6.166946365577131 13.649423359785164 1 1 0
1117 373 1 -1.04 10.415609636767094 6.05103452953262 13.652877227955209 0 0 0
2210 737 2 0.52 14.468155060657095 1.1744097189846938 12.16369882311316 1 0 0
3869 1290 2 0.52 11.854545293227678 -0.1313900880692858 8.580329694815607 0 1 1
1519 507 1 -1.04 16.232292147121356 0.5790662568492858 7.934269827680968 0 0 0
3397 1133 1 -1.04 15.203550393016966 6.025575198828614 13.021928999060576 1 1 0
4498 1500 1 -1.04 15.445892431332352 4.808062412888587 7.161447759813383 0 0 0
2117 706 2 0.52 16.851637060723345 -0.4909258160375377 9.778143903317858 0 1 0
1171 391 1 -1.04 12.895771714180293 0.6252615796886357 13.729232315451474 0 0 0
1172 391 2 0.52 12.60847357201331 0.18020945886118891 12.931974372716258 0 0 0
290 97 2 0.52 12.974487359021026 8.39259228695241 11.902981554942983 0 0 0
2185 729 1 -1.04 10.217955855033978 8.274287703526289 12.033124198853319 0 1 0
264 88 2 0.52 17.641906609510077 7.538649256352146 7.427284321181262 0 0 0
262 88 1 -1.04 16.932464025995277 7.157605889801398 7.944709691165688 0 0 0
1940 647 2 0.52 17.725052765490293 3.717490617138971 9.130820590523815 0 0 0
1173 391 2 0.52 12.240927949345878 1.308691652093139 13.871832525096005 0 0 0
1520 507 2 0.52 16.723331334739882 1.31561797124905 8.298418050576135 0 0 0
4180 1394 1 -1.04 0.940418067202419 17.157187393597805 11.097768063717384 0 0 0
1070 357 2 0.52 2.3407877178465357 15.639428120299737 7.56262738040378 0 0 0
584 195 2 0.52 3.3852919627434575 11.899737724318767 7.376936763725729 0 0 0
583 195 1 -1.04 2.4450280191202514 11.996384622371417 7.2259568530788565 0 0 0
4294 1432 1 -1.04 0.13068229464619388 11.886145398988381 10.705841633306227 1 0 0
1847 616 2 0.52 4.239165555265486 8.810400014384737 10.739717332383885 0 0 0
3578 1193 2 0.52 4.212135948753676 15.125052830964275 8.078298542060804 0 0 0
1069 357 1 -1.04 3.131151848503919 15.860704742814404 7.07009003430838 0 0 0
4182 1394 2 0.52 0.81150530095528 16.573116250528056 10.350456723958843 0 0 0
3948 1316 2 0.52 2.5761093050538366 9.160744811308225 9.093133519081016 0 0 0
585 195 2 0.52 2.0445675674088477 11.309197469614356 7.758532747858878 0 0 0
3577 1193 1 -1.04 4.72050405515511 14.541858182970296 8.641927596444093 0 0 0
3295 1099 1 -1.04 7.32613964625669 17.502368376436152 12.587008719283252 1 0 0
3946 1316 1 -1.04 1.9538033405849842 9.493211115564552 8.446269326904149 0 0 0
3947 1316 2 0.52 1.0995101662078282 9.409031416448878 8.86974162879578 0 0 0
1745 582 2 0.52 5.417947021791597 17.352922560534587 8.939755036618344 0 0 0
2530 844 1 -1.04 2.746600800172531 13.451967407761623 9.9571821081588 0 1 0
2532 844 2 0.52 2.640525163634207 12.5174939725731 9.779027124338674 0 1 0
2531 844 2 0.52 3.521193490055926 13.705555373074667 9.45525467453159 0 1 0
1024 342 1 -1.04 3.327582348154515 12.707878666057704 12.991789010754445 1 1 0
1026 342 2 0.52 3.0817747908916937 13.10790756559271 12.15765031465571 1 1 0
4070 1357 2 0.52 1.725297058613603 14.71026715634071 9.552044248530526 0 0 0
4069 1357 1 -1.04 1.1711740924198717 15.328509139730766 9.0756448065592 0 0 0
4071 1357 2 0.52 0.9401145780516796 14.870330118104548 8.267613046687364 0 0 0
1025 342 2 0.52 2.4951402123402695 12.456807307855533 13.392082782391645 1 1 0
3579 1193 2 0.52 5.611219068487062 14.890623577973864 8.606980432423724 0 0 0
541 181 1 -1.04 6.84961730434689 15.961651351595169 8.234411558037383 1 1 0
543 181 2 0.52 7.745859396654296 15.651194572624576 8.105576235366742 1 1 0
2747 916 2 0.52 6.046490209179348 10.35582865886795 12.868974207128458 0 1 0
2746 916 1 -1.04 5.098074171971351 10.25601416564701 12.78665818614999 0 1 0