ITEM: TIMESTEP
0
ITEM: NUMBER OF ATOMS
4500
ITEM: BOX BOUNDS
0.000000 35.617820
0.000000 35.617820
0.000000 35.558474
ITEM: ATOMS id type x y z vx vy vz mass
3914 2 8.297980 5.535440 5.438950 -0.00228825 -0.00215144 -0.000860708 15.9994
3392 2 4.881420 8.530460 0.443896 -0.00618418 0.00496156 -0.000873293 15.9994
3416 2 3.611560 6.611100 3.935980 -0.00464968 -0.000838698 0.005023 15.9994
3913 1 7.365130 5.424910 5.622820 -0.00373356 -0.00809998 -0.0115045 1.008
3915 2 6.949420 6.188280 5.221970 -0.00166437 0.000435767 0.00248575 15.9994
3417 2 4.660140 7.687500 4.119610 0.000807529 -0.00572086 0.00314891 15.9994
3415 1 3.726390 7.561260 3.951040 0.000719363 -0.00137318 0.000132296 1.008
4239 2 3.668220 5.072220 0.404276 -0.000511537 0.00373827 0.00478537 15.9994
73 1 3.445140 4.841860 3.865450 -0.00856098 -0.00851812 0.000478179 1.008
4238 2 2.605330 6.150210 0.414748 -0.0025758 0.00182966 0.00335575 15.9994
75 2 3.723110 4.625090 2.975520 0.000624699 0.00148562 0.000830336 15.9994
2048 2 6.678910 2.927840 2.527270 0.0023399 0.00424559 -0.000364205 15.9994
2516 2 3.914220 2.439920 5.890900 -0.000550807 0.00306198 0.00189365 15.9994
2515 1 4.255610 2.474280 4.997310 0.00666887 0.0308536 0.0056195 1.008
2517 2 5.183180 2.255300 5.086190 -0.00141931 -0.00525236 0.00227896 15.9994
74 2 3.797080 4.134480 4.405810 -0.00160145 -0.0069217 -0.00185318 15.9994
4265 2 7.347530 3.374610 4.768760 0.000610683 -0.00092874 0.0040674 15.9994
4264 1 7.069280 2.542160 4.386860 -0.00437525 -0.00287959 0.011811 1.008
4266 2 7.863100 2.007500 4.372410 -0.00310637 -0.000735407 -0.00174142 15.9994
3846 2 0.995355 6.344680 6.981260 -0.00275528 0.000229153 -0.00479272 15.9994
3844 1 0.691362 6.879890 7.714310 -0.00653305 -0.00369207 -0.00342423 1.008
3535 1 5.862650 5.182040 0.869661 -0.0064705 0.00139073 0.00245904 1.008
3451 1 1.388180 5.128870 5.785380 -0.000501653 0.00128393 0.00202002 1.008
2047 1 6.385360 2.687140 1.648560 -0.00557373 0.000260623 0.00332432 1.008
2049 2 6.167350 3.520730 1.231630 0.00299926 -0.000577048 -0.00292591 15.9994
161 2 4.586540 2.733260 1.341990 -0.00413328 -0.0017059 -0.000187579 15.9994
3537 2 6.563880 5.642820 1.330290 -0.00210537 -0.00262031 -8.69987e-05 15.9994
1093 1 6.233280 7.909670 4.788870 -0.00765228 -0.0021714 -0.000738211 1.008
1094 2 6.709900 8.203240 4.012420 -0.00539141 -0.000460406 0.00124049 15.9994
4093 1 3.651180 2.273310 7.766170 -0.00595024 0.0141097 -0.0134157 1.008
974 2 4.129320 0.744458 4.208230 -0.00416177 -0.00523516 0.00241827 15.9994
4407 2 5.932890 0.937284 1.512210 -0.00219984 -0.000203774 0.00296256 15.9994
201 2 5.176490 1.464520 7.728060 -0.000129238 0.00534254 0.000404216 15.9994
160 1 3.641010 2.875250 1.387200 -0.00424898 -0.00196262 -0.000708437 1.008
162 2 3.354960 2.879020 0.473744 -0.00264056 0.0053678 -0.00125804 15.9994
975 2 4.410600 0.102558 2.866310 0.00211304 0.002692 -0.000150171 15.9994
3171 2 8.486940 7.303200 2.090860 -0.000646404 0.00173375 -0.00302178 15.9994
3452 2 2.029030 5.123300 5.074380 0.0025854 -3.48311e-05 0.00475031 15.9994
679 1 1.202360 2.156220 2.080800 0.00494789 -0.0179498 -0.0101318 1.008
4405 1 5.473220 0.107348 1.385180 0.0020347 -0.00200997 -0.000993811 1.008
681 2 1.282780 1.654240 2.891840 0.00090001 -0.0029544 -0.000354729 15.9994
1095 2 5.916690 8.716360 5.195390 0.000708602 -0.0023827 0.00626767 15.9994
680 2 2.102640 2.385500 1.850210 0.00420449 -0.000868762 0.00359279 15.9994
3328 1 8.092570 8.830320 2.917610 -0.0154247 0.00639323 0.0189953 1.008
3047 2 2.627340 8.758560 5.012400 -0.0015771 -7.26572e-05 0.00493059 15.9994
4039 1 1.217550 7.372250 2.222400 0.00643126 -0.0183283 -0.00269197 1.008
3732 2 4.218680 6.019170 8.100700 -0.00110336 -0.00194581 -0.00636712 15.9994
3731 2 2.861960 6.686050 8.181150 0.000790193 0.001749 -0.00354441 15.9994
4355 2 3.806550 8.634300 8.293840 0.00607708 0.00137409 0.00235638 15.9994
3730 1 3.769010 6.777810 8.472830 -0.00666722 -0.0216178 0.0271407 1.008
4040 2 1.495630 7.913960 1.483860 -0.00468672 -0.00751917 0.00100907 15.9994
3845 2 0.552166 7.748100 7.336070 -0.000691467 -0.000594905 0.0013898 15.9994
199 1 6.034500 1.094090 7.521070 -0.0022658 -0.00516298 0.0101876 1.008
3170 2 8.758170 6.552480 0.804493 -0.00387432 0.00207559 -0.00399707 15.9994
3169 1 8.382170 6.445860 1.678270 -0.0022844 0.00199647 -0.00326307 1.008
3453 2 0.574126 4.834240 5.377040 0.00149842 -0.00066443 -0.000673778 15.9994
3393 2 4.273950 8.773570 1.809090 0.000362528 0.00208834 0.00264072 15.9994
4041 2 1.945480 7.419490 2.842170 0.00391933 -0.00469941 -0.000725709 15.9994
4006 1 8.799790 8.828910 8.414800 -1.12328e-05 -0.00477129 0.002729 1.008
4094 2 2.884790 2.075650 8.304500 0.0030752 0.00145748 -0.00509552 15.9994
4095 2 4.071600 3.010630 8.208710 -2.52553e-05 0.00556676 -0.00467329 15.9994
1226 2 5.355230 4.816640 6.563220 -0.00115308 -0.00454392 -0.00066147 15.9994
1225 1 5.215430 4.660700 7.497220 0.00863934 -0.0125223 -0.000457139 1.008
1227 2 5.952050 5.096190 7.926130 0.00363242 -0.00100782 -0.00339329 15.9994
2248 1 7.302440 6.499350 8.277740 -0.000541773 0.00870795 -0.00375461 1.008
2249 2 7.504170 6.327660 7.357920 0.00210173 -0.000238496 -0.00156176 15.9994
4406 2 5.154620 0.145059 0.483350 -0.0037935 0.00345847 0.00122968 15.9994
2250 2 7.671970 7.366020 8.446750 0.00390484 0.00800841 -0.00959287 15.9994
1950 2 0.088535 3.451460 3.137940 -0.000397171 0.00398769 -0.000488541 15.9994
200 2 5.854240 0.425970 6.859750 -0.00180771 0.00297465 0.00178579 15.9994
823 1 1.384530 0.067760 3.864810 -0.00620264 0.0132411 -0.00295212 1.008
691 1 0.723149 0.178735 6.667520 0.0192883 0.0300577 -0.000271334 1.008
693 2 0.869516 0.086294 5.726100 0.00191967 0.00542155 -0.0006368 15.9994
825 2 2.321070 -0.024088 3.689670 -0.00545688 0.00926044 0.00283901 15.9994
310 1 9.999590 5.107510 5.342740 0.012952 -0.00974185 -0.0081262 1.008
311 2 10.542600 5.867190 5.132290 0.000765888 0.000259305 -0.00361265 15.9994
4289 2 10.489600 3.924750 4.141710 0.00184595 0.00597442 0.00351608 15.9994
89 2 11.460800 7.474050 3.563890 -0.00033085 -0.00368012 -0.000805176 15.9994
1033 1 9.253950 0.801553 4.714940 0.00759445 0.00588542 0.0102404 1.008
4288 1 10.750400 3.161980 3.625560 0.00478474 0.00734834 0.00286812 1.008
1034 2 9.773940 1.305720 4.089120 0.000438896 4.94847e-05 -0.000478655 15.9994
312 2 10.319300 4.812890 6.195520 0.00587833 0.000945657 -0.00174311 15.9994
4290 2 10.301200 3.274180 2.787770 0.000723111 0.00400037 0.00453064 15.9994
90 2 10.874500 8.232530 4.735610 -0.00132391 0.00109769 -0.00429094 15.9994
88 1 11.332500 7.422570 4.511060 -0.00660116 -0.002704 -0.00155173 1.008
4140 2 15.065300 2.211720 8.128400 4.2331e-05 -0.00341638 4.84104e-05 15.9994
3161 2 11.863100 0.789005 1.145190 -0.00521132 0.0013847 0.00333268 15.9994
1969 1 12.672200 8.214000 6.746680 -0.00539525 -0.00810972 -0.00206784 1.008
1970 2 12.419800 7.950020 5.861900 -0.00139847 -0.0014352 -0.00525358 15.9994
3601 1 12.856600 2.736350 5.710620 0.00528835 -0.013556 -0.00943022 1.008
3603 2 12.359100 2.896160 4.908630 -0.00308424 -0.00113754 -0.00182462 15.9994
3602 2 12.282300 2.186570 6.243730 -0.000397988 0.00101846 -0.000432564 15.9994
553 1 14.626100 6.446830 7.038660 -0.00344818 -0.00140772 -0.0101261 1.008
2706 2 15.189500 0.291707 5.108400 -0.00172965 -0.00224727 -0.00126661 15.9994
39 2 12.463400 8.235220 1.486920 -0.000799863 0.00183575 0.00131136 15.9994
634 1 11.755200 5.083950 0.587060 0.0125194 0.0200296 -0.00225575 1.008
37 1 11.830000 7.662400 1.919290 -0.00734477 0.00481252 -0.00426689 1.008
554 2 14.048500 7.087020 6.623040 -0.00607253 0.00256697 -0.000458173 15.9994
568 1 16.436600 1.819100 1.970480 0.0059169 -0.00585334 0.00142005 1.008
2704 1 15.297000 1.012000 4.487220 -0.00674494 -0.00425605 -0.00452597 1.008
2705 2 14.925100 1.772170 4.934540 0.00413223 -0.00106756 -0.000836409 15.9994
570 2 15.991900 1.520600 2.763830 0.000642575 -0.00194566 -3.65521e-06 15.9994
1212 2 15.191700 4.703220 5.878320 -0.000442891 0.00183257 -0.00369093 15.9994
635 2 12.553900 4.609030 0.816541 0.00342503 0.00349066 -0.00462166 15.9994
1530 2 14.958300 2.991920 1.205530 -0.007513 -0.00497178 0.00691334 15.9994
38 2 11.785900 6.887390 1.359250 0.00240093 0.000126798 0.00141287 15.9994
4138 1 15.741100 1.580170 7.881920 0.00361292 0.000332942 4.31427e-05 1.008
1210 1 15.624700 3.849680 5.890730 -0.00596348 -0.00100969 -0.00270271 1.008
569 2 17.046000 2.491330 2.275420 0.00241029 -0.00280115 0.00186098 15.9994
1211 2 16.199900 3.861270 5.125720 0.00465448 -0.00018791 0.00523537 15.9994
69 2 14.737800 5.248810 1.424430 0.00556756 -0.000848524 0.00549145 15.9994
67 1 14.886400 6.152220 1.703710 -0.0142482 0.0075045 -0.0107482 1.008
3988 1 13.842000 3.570050 8.281010 -0.00233918 -0.00654215 0.00511103 1.008
1275 2 11.591400 7.389260 8.097000 -0.00558722 -0.00198744 0.00219187 15.9994
3990 2 13.515300 3.237950 7.444830 -0.00685197 0.00539176 0.0020807 15.9994
256 1 16.357000 7.956210 5.522550 -0.00150252 -0.00226914 0.000958113 1.008
257 2 16.088300 7.652620 6.389640 0.00361267 -0.00198997 0.00269856 15.9994
932 2 15.114300 8.645550 4.139130 -0.00522413 0.000328927 0.00685629 15.9994
933 2 14.480200 7.928270 2.966420 0.00542289 -0.00144782 0.00208113 15.9994
1528 1 14.339100 3.674070 0.945575 0.016114 0.0139162 -4.59759e-05 1.008
555 2 14.045300 5.920640 7.588160 0.00153356 -8.65578e-05 -0.00351395 15.9994
3285 2 10.785700 2.780580 7.537270 -0.00483363 0.00665892 0.00558044 15.9994
68 2 15.581600 6.470210 1.127650 -0.000985546 0.00310513 0.00272056 15.9994
4139 2 16.483000 2.118130 7.605550 0.00182768 0.00453354 0.00323288 15.9994
3284 2 9.937820 1.957860 6.590590 -0.00133523 0.00212261 0.00626122 15.9994
3283 1 10.666900 1.890010 7.207080 -0.00592372 0.00435578 0.0120207 1.008
3607 1 10.288500 4.385180 8.003120 0.0116959 -0.00365854 0.00624996 1.008
3608 2 10.690900 5.244670 8.127940 0.00153902 0.00176843 0.00185299 15.9994
3314 2 17.273000 3.901560 7.987230 -5.37573e-05 -0.00151003 -0.00245256 15.9994
3239 2 10.405200 0.032292 7.735550 -0.00166661 -0.0015896 0.00293239 15.9994
3911 2 16.479100 6.498330 3.015370 -0.00746883 0.00322086 0.00278573 15.9994
931 1 14.660400 8.802840 3.311200 -0.00123738 -0.000923924 0.00437257 1.008
1035 2 9.790970 0.033427 4.909420 -0.00149558 -0.00528779 -0.00856865 15.9994
258 2 16.806800 8.784940 5.687180 0.00249064 -0.00386073 -0.00163894 15.9994
1274 2 10.211700 7.735510 8.615020 -0.00496515 0.0024983 0.00108713 15.9994
1273 1 10.803800 6.996830 8.473710 -0.00123928 0.00262369 0.016076 1.008
3609 2 9.721630 4.272530 8.766130 0.00173182 -0.000158882 -0.000599326 15.9994
3207 2 14.909600 0.211160 7.198580 0.0020137 -0.000299528 0.00256082 15.9994
3912 2 16.717700 6.524090 4.510140 -0.00449378 0.00496835 0.002362 15.9994
3160 1 11.641700 0.103870 1.775910 -0.00593132 0.0102792 0.0128301 1.008
2807 2 9.002680 4.722830 1.586070 -0.00481926 0.00110183 -0.00432347 15.9994
2806 1 9.400360 3.907020 1.281870 0.00336255 0.000975893 0.00654016 1.008
1529 2 14.354000 3.659580 -0.011400 0.00481742 -0.00620194 1.55617e-05 15.9994
2808 2 10.190500 4.183660 0.817760 -0.000120588 0.00280218 0.00158951 15.9994
2060 2 17.111200 7.539180 8.605050 0.000206891 0.00292441 -0.00299111 15.9994
2059 1 16.737000 8.419490 8.640840 0.00208708 0.00319619 0.0112 1.008
3910 1 16.889700 6.004280 3.725000 -0.00861512 0.00250077 0.00301998 1.008
3162 2 10.697200 -0.016482 1.677800 -0.00248222 -0.00576909 -0.00128408 15.9994
3039 2 17.368100 0.137388 2.132380 -0.0019055 0.00549483 0.00899808 15.9994
3329 2 8.874730 9.136610 3.376570 0.000701198 -0.0017721 -0.00298288 15.9994
3391 1 4.798350 9.194750 1.128040 0.00412475 0.00071489 0.00460503 1.008
4356 2 3.631430 9.465370 7.040620 0.0058687 -0.00089988 0.00077994 15.9994
193 1 0.752534 16.189200 1.291180 -0.00375502 0.00242955 -0.0168061 1.008
100 1 6.976130 10.585300 1.110330 -0.00146586 0.00239966 0.000665302 1.008
102 2 6.124850 10.149600 1.068230 -0.000852248 0.0011166 0.000415341 15.9994
819 2 7.981030 12.023000 2.196890 0.000192746 -0.00645746 0.000207732 15.9994
101 2 7.478130 10.201100 0.391556 -0.000783107 0.00338564 0.000545965 15.9994
3048 2 1.764900 9.696600 5.829820 -0.000881643 -0.00115541 0.00705601 15.9994
3046 1 2.667810 9.551450 5.547110 -0.00198205 0.00220645 0.00166575 1.008
302 2 3.362560 10.782000 4.334920 -0.00309893 -8.10793e-05 -0.0015715 15.9994
301 1 3.619410 11.204900 3.515560 0.00785767 -0.0292232 -0.0132748 1.008
303 2 4.551750 11.392500 3.624280 0.000115615 -9.6232e-05 0.00362372 15.9994
2940 2 2.565970 12.883500 4.164340 -0.00275747 -0.0041305 -0.00758736 15.9994
380 2 2.532890 10.322900 0.775532 -0.00204174 0.00634274 -0.000831605 15.9994
381 2 2.690410 11.019200 2.110580 0.00115645 0.00111471 0.0016089 15.9994
379 1 2.077160 10.903800 1.384730 -0.00501001 -0.00476546 0.00766059 1.008
2931 2 7.248250 11.866700 4.238910 0.00443395 0.00645132 0.00309011 15.9994
2930 2 6.576420 11.425100 5.521690 -0.00336107 -0.00103149 -0.00347322 15.9994
2454 2 5.698350 13.518200 5.142590 -0.00237736 0.0024659 -0.00379792 15.9994
2452 1 5.325010 14.339000 5.463790 -0.00637991 0.00355324 -0.0110269 1.008
2453 2 5.947090 15.010900 5.184980 -0.0035942 0.0028343 -0.00675492 15.9994
1267 1 3.701490 16.599800 5.710320 0.00431899 0.0033488 0.0135118 1.008
1269 2 4.347680 15.898400 5.627970 -0.00524619 -0.00429043 0.00332579 15.9994
598 1 6.266840 13.267200 0.852401 -0.0074312 -0.00377119 -0.0024551 1.008
600 2 6.319680 12.313300 0.794393 -0.00073111 -0.00351796 -0.00150134 15.9994
486 2 1.914680 12.868500 1.120040 -0.00201855 0.00223779 -0.00447685 15.9994
965 2 7.603470 14.428200 1.471680 0.00166589 -0.00448924 0.0040147 15.9994
2929 1 6.397130 11.835700 4.675790 0.00349959 0.0130561 0.00185229 1.008
966 2 7.372500 15.521300 2.493200 -0.00234141 -0.0016968 0.000240323 15.9994
964 1 8.016450 15.197800 1.863200 0.00756564 -0.013963 0.0165642 1.008
2938 1 2.465400 13.675200 4.692820 -0.00763278 -0.00776101 -0.00299721 1.008
2369 2 4.931700 13.910300 1.963340 0.00264662 -0.00125805 0.00625821 15.9994
2939 2 3.348350 13.866300 5.009260 -0.00813207 -0.00199915 -0.00494645 15.9994
4118 2 0.224618 10.745300 1.286320 0.000355924 -0.00266068 -0.00579406 15.9994
2787 2 5.198900 15.033100 8.455650 0.00166809 -0.000453568 -0.00295485 15.9994
194 2 1.195630 15.341400 1.258420 -0.00172067 0.0027149 0.00196282 15.9994
542 2 1.816810 13.353800 6.641810 0.00511134 -0.001089 0.00122715 15.9994
2368 1 4.255160 14.443700 2.380480 0.00504024 0.00649416 0.0003133 1.008
541 1 2.303930 13.183700 7.448040 -0.00122995 -0.0168556 0.00176695 1.008
1268 2 3.111570 16.302400 6.403010 -0.00269392 -0.000863693 0.0057672 15.9994
2085 2 0.865856 15.816800 7.675010 -0.00156715 0.000978592 -0.00182443 15.9994
2370 2 3.445350 14.196400 1.934110 0.00302391 0.00118733 0.00682986 15.9994
3330 2 7.842600 9.562760 2.354320 0.00154348 -0.00717493 -0.00620453 15.9994
817 1 8.750770 12.106700 2.759670 0.000649215 -0.0179513 0.00140861 1.008
2083 1 1.655560 16.259000 7.363460 -0.00254961 0.00329257 -0.00118819 1.008
356 2 2.796500 16.930700 4.206800 -0.00135347 -0.00166339 -0.0001148 15.9994
1478 2 7.767490 16.286000 4.603240 -0.0031143 -0.00651388 -0.000335391 15.9994
357 2 1.661460 16.748900 3.221640 -0.00290996 0.007984 -0.000226296 15.9994
1477 1 6.870490 16.235300 4.273030 -0.00174087 0.00113762 -0.00538945 1.008
4354 1 4.069230 9.462320 7.891830 -0.0155451 0.01291 0.0118937 1.008
2226 2 6.020350 9.941760 7.900760 0.00175218 0.00229171 -0.00233517 15.9994
2224 1 6.741430 10.398500 7.467570 0.00766659 -0.000321811 0.00464814 1.008
2785 1 5.592000 15.889000 8.625940 -0.00441939 -6.55576e-05 0.009467 1.008
2225 2 6.834130 11.217200 7.954800 0.00305492 0.00133644 0.00283824 15.9994
4008 2 8.111090 9.414850 8.100790 0.00183934 -0.00289546 0.00202137 15.9994
543 2 1.690040 13.400700 8.149660 0.00143012 -0.00729362 0.00119093 15.9994
839 2 4.865980 16.406800 1.258440 0.00126092 -0.00150664 0.000133469 15.9994
1479 2 6.531290 17.126000 4.362140 0.000508087 0.000877547 0.00633554 15.9994
2084 2 1.912230 16.830200 8.087400 -0.0010245 -0.000862135 0.00161806 15.9994
630 2 0.743653 13.792900 5.234060 0.00117595 0.00308402 -0.00115896 15.9994
628 1 -0.023582 13.797800 5.806390 -0.00259351 -0.00269722 -0.00610453 1.008
2137 1 0.162571 9.401950 6.549940 0.00269917 0.000878855 -0.00962799 1.008
1792 1 4.831550 13.429300 8.084520 -0.00259603 0.00480306 -0.0019254 1.008
1793 2 3.926560 13.261900 7.821410 -0.00143411 -0.000561105 -0.00271711 15.9994
1794 2 5.290750 13.608700 7.264030 -0.00100717 -0.00151698 -0.00248568 15.9994
3881 2 0.683176 17.648400 6.495300 0.00111766 -0.00125528 -0.00141951 15.9994
838 1 5.361510 17.137600 0.888869 0.00108714 0.00371337 0.0101032 1.008
355 1 2.138860 17.418700 3.711250 0.00883436 0.00485215 -0.00730507 1.008
485 2 2.404140 13.982900 0.219826 -0.00619042 0.00482714 -0.00367564 15.9994
484 1 1.912780 13.821000 1.025160 -0.0129147 0.00188901 -0.0083066 1.008
4391 2 12.311200 17.448900 6.469040 0.000695513 -0.00118798 0.000800576 15.9994
818 2 9.494050 12.057600 2.158540 0.000116137 -0.000677555 -0.000784694 15.9994
3165 2 9.737900 13.155700 3.817340 0.000591214 0.0010365 0.00296255 15.9994
785 2 8.881540 12.079200 8.330920 -0.000424725 -0.0051658 -0.00440401 15.9994
1971 2 13.259200 8.958870 6.616640 -0.00422366 -0.00752509 0.00619062 15.9994
465 2 10.685400 10.175900 4.403000 -0.000352117 0.00118015 -0.00238064 15.9994
463 1 10.016300 9.667950 4.861760 -0.00986567 0.00236961 -0.0149032 1.008
464 2 9.725730 10.240000 5.572130 -0.00597271 -0.00605642 -0.006493 15.9994
242 2 16.938600 10.651400 1.508840 9.10223e-05 0.00401437 -0.00778231 15.9994
1608 2 10.451000 9.147400 1.506900 0.0013324 -0.00301654 -0.00160316 15.9994
1606 1 10.040600 9.969000 1.237070 0.0211142 -0.000317021 -0.0236293 1.008
1607 2 9.393820 9.709970 0.580706 0.000789889 -0.00450663 -0.0020208 15.9994
3164 2 11.047200 13.758600 4.280070 0.00153626 0.000982133 0.000622737 15.9994
3163 1 10.101400 13.804400 4.420020 0.00213336 -0.00264101 0.00604611 1.008
2431 1 16.910300 15.268300 5.883960 -0.00168764 -0.0057896 0.00314115 1.008
403 1 9.901340 12.039100 6.723380 -0.00145175 0.003907 0.000720948 1.008
405 2 9.664710 12.647400 6.023200 -0.00183959 0.00642442 0.00296321 15.9994
2902 1 14.267700 10.306100 6.310410 -6.42663e-05 0.000691651 -0.00211338 1.008
2162 2 9.504750 15.154900 5.189020 -8.11296e-05 0.00200735 0.00202932 15.9994
4390 1 11.971400 16.800200 5.852650 -0.0126754 -0.0107389 0.0180698 1.008
2903 2 15.092200 10.662800 5.979980 0.000986856 0.00218485 0.0019845 15.9994
2904 2 13.647100 11.031400 6.240070 0.000422563 0.00141672 0.000407193 15.9994
1830 2 13.138500 9.960060 3.619250 0.00012376 -0.00484643 -0.00645838 15.9994
2393 2 13.233400 13.937300 2.188160 -0.00123577 0.00290391 0.000140737 15.9994
1828 1 12.333900 10.474400 3.553050 0.00157601 -0.000614126 0.00808052 1.008
1829 2 12.634200 11.375200 3.431830 0.00409227 -0.00272172 -0.0017404 15.9994
3096 2 16.143100 12.295800 8.088000 -0.00077467 -0.00228504 0.00745184 15.9994
2749 1 10.489700 14.800900 1.046430 0.00735434 0.00349553 0.00193108 1.008
2751 2 9.646880 15.021300 1.443160 0.00155353 -0.0046644 -0.00574545 15.9994
404 2 10.822800 12.226200 6.902560 0.000906819 -0.00231843 -0.00470441 15.9994
2750 2 10.797800 15.623200 0.665315 0.00189317 0.00604473 0.00288803 15.9994
2161 1 9.355100 16.063800 5.449410 0.000844974 0.00771007 -0.0169334 1.008
1587 2 16.079100 15.569200 4.310190 0.0018901 0.00132846 0.00721818 15.9994
4392 2 12.547900 16.043400 5.958690 0.00237263 -0.00159028 0.00244653 15.9994
1586 2 15.583200 15.022400 2.988460 0.000906088 -0.00188131 0.00882287 15.9994
1585 1 15.407100 15.699900 3.641230 0.00789739 0.00645199 0.00212165 1.008
2163 2 10.227000 16.401200 5.654770 -0.00131089 0.00409005 -0.00137441 15.9994
3056 2 14.042000 15.074600 4.953960 -0.00447761 0.00175816 0.00439355 15.9994
3055 1 13.524600 14.600300 5.604830 -0.00176868 0.00593064 0.00965866 1.008
3057 2 14.156800 14.351700 6.279140 0.00270352 0.0025148 0.00427598 15.9994
2783 2 15.889900 13.741200 1.055190 -0.00242671 -0.00245017 -0.00386303 15.9994
2784 2 15.415100 12.764700 2.110090 0.00768975 -0.00585503 -0.00234597 15.9994
2782 1 15.367900 13.686200 1.855600 -0.0056973 -0.00757059 -0.00628535 1.008
2456 2 11.473500 10.755500 0.757123 0.00438659 0.000689291 -0.00102429 15.9994
3094 1 16.070000 13.123700 7.613260 0.0243994 -0.00705225 -0.00488623 1.008
2455 1 12.151500 11.340900 0.419729 -0.00601275 0.0108576 -0.00442938 1.008
2392 1 12.471200 13.431500 2.469860 -0.000320299 -0.00974004 -0.0198832 1.008
2394 2 11.722300 13.902000 2.103870 -0.000880892 -5.17565e-05 -0.00642977 15.9994
2433 2 16.459000 14.770500 6.565690 0.00173903 -0.00612927 0.00522798 15.9994
3956 2 16.791400 11.972500 5.332680 -0.000291804 -0.0012813 0.00390418 15.9994
243 2 15.584400 10.289900 2.080890 0.00311903 0.00106457 -0.00226559 15.9994
241 1 16.013600 10.895500 1.476510 0.00213549 0.0143428 0.010264 1.008
2457 2 12.547200 11.725700 1.201750 0.00598675 0.00117554 -0.00567398 15.9994
3955 1 16.941200 11.027000 5.335420 0.00448935 -0.00064192 -0.0191314 1.008
2683 1 16.235700 17.193500 0.431262 -0.000170897 -0.00754894 0.00171845 1.008
2684 2 16.805100 16.970500 1.167710 0.00336451 -0.00756995 -0.000956569 15.9994
888 2 12.793300 13.102900 6.104910 -0.00375948 -0.00489254 -0.00119509 15.9994
3095 2 16.225400 13.795600 8.277130 -0.0068093 -0.000400249 -0.00422315 15.9994
2447 2 9.438520 15.420900 7.279790 -0.00283 0.00469792 0.000325432 15.9994
886 1 12.481100 12.378500 6.647140 -0.0158152 9.49158e-05 -0.00136118 1.008
887 2 12.502300 12.721100 7.540680 0.00104109 -0.00433987 9.29037e-06 15.9994
2448 2 9.283690 14.471900 8.449120 -0.00158412 0.0026261 -0.00108674 15.9994
2446 1 9.856570 15.153900 8.098420 0.00638028 -0.0077273 -0.00836364 1.008
2432 2 17.688300 14.748300 5.682350 -0.000544916 -0.0036713 0.00184988 15.9994
4197 2 12.705600 16.892600 8.759620 -0.00391483 -0.006015 -0.000668829 15.9994
1187 2 17.447200 16.824400 3.438240 0.00437373 0.00246419 0.00255375 15.9994
4067 2 17.691600 11.229800 8.815470 -0.0057142 0.0029727 0.00263602 15.9994
2685 2 15.426800 17.503300 0.838538 0.00478949 0.000407594 0.00561733 15.9994
1433 2 15.602600 16.886900 8.227160 -0.00121291 0.00033135 -0.00317583 15.9994
618 2 14.219400 17.380000 3.822890 0.000998824 -0.00550711 0.00223802 15.9994
3335 2 12.828700 17.267500 0.188168 0.00537871 0.00299155 -0.00206692 15.9994
1432 1 15.554000 17.754500 7.825630 -0.0063761 0.010343 0.0188755 1.008
617 2 13.029300 17.774400 4.671290 0.00342719 -0.00597537 0.00600688 15.9994
2232 2 7.737640 1.762910 9.014860 -0.00445001 0.00592316 0.00620875 15.9994
2019 2 0.008493 1.516230 10.901800 -5.53345e-05 0.00537874 -0.00322387 15.9994
415 1 5.429370 0.170920 17.056000 0.000232835 -0.00163744 -0.00152958 1.008
2231 2 7.883650 1.623030 10.515200 0.00390964 -0.00743573 0.00423118 15.9994
2230 1 8.393390 1.676450 9.706770 -0.000791743 -0.00640749 0.00127441 1.008
3333 2 5.012470 1.201770 11.069100 0.00563287 -0.00183541 -0.000166746 15.9994
1887 2 7.203450 0.299441 14.888400 0.00386882 -0.00440534 -0.0015279 15.9994
1598 2 1.959970 1.725320 10.672900 0.00289875 -0.000984774 0.00112316 15.9994
1805 2 2.630260 1.288500 12.300000 0.000513094 0.00507258 -0.00395601 15.9994
1086 2 7.931200 4.811020 15.212800 -0.00142837 -0.00177718 -0.00101061 15.9994
3332 2 6.004400 1.959940 11.925400 0.00223998 0.00597334 -0.00300833 15.9994
1599 2 1.429080 3.096420 11.033700 -7.71907e-06 -0.00160526 -0.00045915 15.9994
4235 2 0.330410 7.891450 9.295760 0.000772962 0.00160435 -0.00274544 15.9994
873 2 8.294260 5.441410 9.615110 0.00176999 0.00777014 0.000589663 15.9994
287 2 2.024790 6.316030 14.524500 0.000226298 -0.00164541 0.00602309 15.9994
286 1 1.725460 6.856450 13.793300 0.00145461 -0.00593484 0.00227031 1.008
288 2 2.394440 7.535640 13.707300 0.00277127 -0.00771615 -0.00203593 15.9994
387 2 2.142950 7.671770 10.587100 -0.00223096 -0.00178817 -0.00772622 15.9994
298 1 5.382460 5.837200 11.439200 -0.00162557 -0.0152629 -0.00730503 1.008
584 2 0.791527 4.905810 12.517000 -0.00424207 0.00390073 0.00481277 15.9994
585 2 1.966040 5.389360 11.693300 0.00113485 -0.00350497 0.00798229 15.9994
583 1 1.503650 4.594290 11.958400 0.00851685 -0.00234313 0.0244877 1.008
3388 1 3.316470 2.592910 13.778600 0.00404466 0.00148954 0.00662273 1.008
3389 2 3.119590 3.124140 14.550200 -0.00564519 2.82379e-05 0.00522033 15.9994
3390 2 3.097130 3.156640 13.036800 -0.00351553 -0.00345672 0.00503317 15.9994
2034 2 6.042470 4.240610 11.906900 0.00352256 -0.00242869 9.89395e-05 15.9994
2033 2 7.467190 3.825470 11.607400 0.00459715 -0.00318713 0.00585206 15.9994
871 1 8.584060 4.768660 10.231300 0.0201136 0.00307468 -0.0130698 1.008
2032 1 6.733850 3.644800 12.195400 0.00398548 0.00111516 0.00649835 1.008
3962 2 6.620510 6.521220 12.728300 -0.000996579 -0.000725674 0.000388604 15.9994
3961 1 7.122880 6.869450 13.464900 -0.00254384 0.0118861 -0.004486 1.008
3963 2 6.478200 6.981350 14.163600 -0.000476547 0.00570601 -0.00153703 15.9994
3331 1 5.932590 1.211670 11.332800 0.00409195 -0.000885879 0.0053545 1.008
3147 2 7.015310 3.454900 13.889400 -0.00267635 -0.00324312 -0.00160744 15.9994
299 2 4.515070 6.241700 11.455100 0.00583412 0.000543643 1.69032e-05 15.9994
1597 1 1.390520 2.424890 10.352700 -0.00549544 -0.00626193 0.00437423 1.008
4309 1 5.462600 0.660620 14.321000 8.1434e-05 -0.00332429 0.00330154 1.008
1084 1 8.389180 5.637030 15.368300 0.00122083 -0.00272997 -0.00345711 1.008
1085 2 8.131550 6.196000 14.635200 -0.00251982 -0.00170231 -0.00142051 15.9994
4150 1 3.014950 5.042800 15.595300 0.00346218 -0.00115938 -0.00525965 1.008
4151 2 3.875010 5.394320 15.365100 0.00133612 0.00220917 -0.00828034 15.9994
4310 2 4.690760 1.215930 14.210900 0.00388963 0.00215016 0.00379993 15.9994
416 2 5.488980 0.382538 16.124400 0.00493537 -0.00429072 -0.00187827 15.9994
3816 2 8.521890 8.327720 14.458800 0.000300236 0.000349577 0.00079493 15.9994
3145 1 7.384550 3.362240 14.767600 -0.00108167 -0.00327074 -0.00222103 1.008
300 2 5.701160 5.987690 10.549200 0.00153413 -0.00434666 -0.00437662 15.9994
385 1 2.808570 7.054950 10.891600 -0.00540691 -0.00335022 -0.00378538 1.008
386 2 3.314870 6.841910 10.107700 0.00102554 -0.00172233 -0.000136444 15.9994
107 2 4.912920 7.737110 16.053900 0.00124366 0.00212887 -0.000849278 15.9994
106 1 5.333130 6.971450 15.662200 -0.00655485 -0.00805739 0.0105487 1.008
4152 2 2.742970 5.553870 16.357500 0.00391641 -0.00186869 -0.00455866 15.9994
108 2 6.129380 6.844530 16.178100 -0.00238631 -0.00204256 0.00569955 15.9994
92 2 7.275210 3.238610 16.639000 -0.00648099 -0.000615531 -0.00119739 15.9994
4236 2 0.173888 8.280680 10.750400 0.00188976 -0.00339137 -0.00120451 15.9994
124 1 7.290830 6.759160 17.646800 0.00481269 0.0043263 0.000980307 1.008
126 2 8.020510 6.240330 17.308200 0.0019275 0.000397811 0.000655031 15.9994
348 2 0.184843 5.977270 16.583400 -0.00919353 0.000182026 0.00327043 15.9994
3146 2 8.181080 2.847000 14.639900 0.00438484 0.00587394 -0.00502903 15.9994
4234 1 0.637318 8.521130 9.948090 -0.00453233 0.00422401 -0.00269957 1.008
3706 1 7.484390 8.747780 11.408700 0.0225007 -0.00562216 -0.00533032 1.008
3707 2 7.697560 8.265070 12.207300 -0.00178958 -0.00593113 0.00103359 15.9994
2538 2 2.781170 8.830090 16.394800 -0.00348902 0.000278777 0.00223362 15.9994
2071 1 0.168971 0.895990 16.956700 0.00745915 -0.00330651 0.000224291 1.008
3894 2 4.133590 1.345150 17.732500 0.000666428 -0.00228605 0.0051666 15.9994
91 1 7.573100 3.436160 17.527000 -0.0031566 -0.000321781 -0.00231591 1.008
417 2 6.280320 0.423311 17.414400 0.00114687 -0.00764188 0.00064641 15.9994
1804 1 2.958570 0.744073 11.584400 0.00100722 -0.000878968 0.000722486 1.008
2466 2 8.610390 0.117945 16.904400 -0.00840751 0.0118225 -0.000456415 15.9994
2605 1 17.071100 0.720681 17.683200 0.00204349 -0.00103519 -0.000249545 1.008
2211 2 15.463100 4.315410 9.093150 0.000191036 -0.00277613 0.00661111 15.9994
3989 2 13.214600 3.248560 8.928550 -0.00395747 -0.00809989 0.0028448 15.9994
2989 1 10.827400 2.097660 10.987800 0.00122757 0.00185848 -0.00355103 1.008
362 2 17.608300 1.027240 14.205700 -0.00187797 -0.00170124 -0.000622002 15.9994
4317 2 9.878980 0.931636 12.115600 -0.00376477 -0.00141897 0.00150367 15.9994
872 2 8.900400 5.258620 10.990300 0.00269412 -0.00384213 -0.00127243 15.9994
3814 1 9.407160 8.520120 14.149800 -0.000678682 0.0122011 0.0050872 1.008
3815 2 9.979780 8.039330 14.747400 0.00198338 0.0026286 -0.00500884 15.9994
2990 2 10.606600 2.745770 11.656700 0.000645262 -0.00291823 0.000959558 15.9994
1520 2 11.297900 0.179782 14.820000 0.000484491 -0.00047236 -0.00107435 15.9994
1146 2 10.590500 6.004140 11.956900 0.00297058 0.000460683 0.00222198 15.9994
3136 1 11.937700 6.040260 10.848900 -0.00133124 0.00214489 0.000585803 1.008
3137 2 11.452900 6.246510 10.049800 0.000198188 0.00250167 -0.00030951 15.9994
3262 1 10.048600 3.088340 13.438900 -0.00281965 0.000158973 0.00797986 1.008
3138 2 12.180000 6.893190 11.209500 2.33964e-05 0.00198109 0.00019557 15.9994
3263 2 10.724700 3.216750 14.104300 -0.0011235 0.007921 0.00482843 15.9994
987 2 13.398700 5.249790 11.853100 -0.00662139 0.00271311 -0.00388091 15.9994
985 1 13.924500 4.693470 12.427800 0.00291199 0.0039637 -0.0113439 1.008
986 2 13.859400 3.820080 12.041500 -0.0108953 0.00134534 -0.00315776 15.9994
354 2 16.868700 6.162150 12.158400 0.000979817 0.00106405 -0.00115934 15.9994
352 1 16.192200 6.023180 11.495700 0.00314065 -0.00402328 -0.0023873 1.008
1144 1 9.796700 5.851910 12.469700 0.00933454 -0.0030727 0.011138 1.008
1145 2 9.615550 6.693990 12.887200 0.00287511 -0.00024919 0.00277942 15.9994
353 2 15.576500 5.415220 11.905100 0.00344674 -0.00344196 -0.000940781 15.9994
407 2 17.097000 0.588665 11.916600 0.00595327 -0.00438095 0.00667284 15.9994
1953 2 15.958400 4.252190 17.129000 -0.00136526 0.00217502 0.00234789 15.9994
1952 2 16.970500 5.306980 16.735300 0.00787578 -0.00561141 0.0049316 15.9994
1951 1 16.106500 4.964190 16.506600 0.00291755 0.00539709 0.00697837 1.008