LAMMPS data file via write_data, version 29 Sep 2021, timestep = 60000

4500 atoms
2 atom types
3000 bonds
1 bond types
1500 angles
1 angle types

-0.02928480302785985 35.588534803026604 xlo xhi
-0.02928480302785985 35.588534803026604 ylo yhi
-0.029231938767853904 35.52924193876801 zlo zhi

Masses

1 1.008
2 15.9994

Pair Coeffs # lj/cut/tip4p/long

1 0.155 3.1536
2 0 0

Bond Coeffs # harmonic

1 450 0.9572

Angle Coeffs # harmonic

1 55 104.52

Atoms # full

3914 1305 2 0.52 8.297979884534627 5.535436511042568 5.438949567351666 1 1 0
3392 1131 2 0.52 4.881424728730015 8.530458507832122 0.44389610542684677 0 0 0
3416 1139 2 0.52 3.611555148180073 6.611095772530493 3.9359812590128564 0 0 1
3913 1305 1 -1.04 7.365130216619486 5.424908195948128 5.622815900955715 1 1 0
3915 1305 2 0.52 6.949423138933771 6.188284496586853 5.221971680359809 1 1 0
3417 1139 2 0.52 4.660140107548594 7.687500076980877 4.119607368608025 0 0 1
3415 1139 1 -1.04 3.7263944382224055 7.561262606579052 3.9510399753163883 0 0 1
4239 1413 2 0.52 3.6682168044941332 5.072223831823352 0.40427599051875396 1 0 1
73 25 1 -1.04 3.445142523002348 4.841858248087948 3.8654523233202776 1 0 0
4238 1413 2 0.52 2.605327753395657 6.15020917179537 0.4147480313249711 1 0 1
75 25 2 0.52 3.7231105600194683 4.62508805166298 2.975521824720117 1 0 0
2048 683 2 0.52 6.678911466075656 2.9278421422298595 2.5272704840297053 -1 0 0
2516 839 2 0.52 3.9142194152585135 2.4399157086666112 5.890897681847595 1 1 0
2515 839 1 -1.04 4.2556100499522795 2.474282971194679 4.997307638365846 1 1 0
2517 839 2 0.52 5.183175565955973 2.2552972249486007 5.086185624739586 1 1 0
74 25 2 0.52 3.7970757169369076 4.134477109152796 4.405810344715192 1 0 0
4265 1422 2 0.52 7.347528961470842 3.3746052067045524 4.768761879630261 0 1 0
4264 1422 1 -1.04 7.069275965646408 2.5421625667053935 4.386863514320903 0 1 0
4266 1422 2 0.52 7.863099264095105 2.007496859053106 4.372406962148574 0 1 0
3846 1282 2 0.52 0.9953551715930378 6.344679533122516 6.981255040331642 0 0 0
3844 1282 1 -1.04 0.6913617426566548 6.879886824425077 7.714312330384799 0 0 0
3535 1179 1 -1.04 5.862647637320906 5.182035312378912 0.8696610422123473 1 1 1
3451 1151 1 -1.04 1.3881794661480287 5.128868920507193 5.785377120801594 0 1 0
2047 683 1 -1.04 6.385364458160172 2.6871405386562714 1.6485642008036376 -1 0 0
2049 683 2 0.52 6.167352160439302 3.5207271366476087 1.2316279206699752 -1 0 0
161 54 2 0.52 4.5865381396922915 2.7332631523682323 1.3419941662820125 0 0 0
3537 1179 2 0.52 6.563882647627499 5.642819828837565 1.3302898838107415 1 1 1
1093 365 1 -1.04 6.233277437243431 7.909671646671355 4.788871325253097 1 1 0
1094 365 2 0.52 6.70989730700331 8.203241102711567 4.012416359250349 1 1 0
4093 1365 1 -1.04 3.651180268310894 2.2733129580162683 7.766170258405423 1 1 0
974 325 2 0.52 4.12932052542255 0.7444584916778657 4.208225156988355 0 1 0
4407 1469 2 0.52 5.932892878229023 0.9372841805448645 1.512213876358899 0 0 0
201 67 2 0.52 5.176494984687691 1.4645205211367545 7.728060814531573 0 0 1
160 54 1 -1.04 3.6410078245730144 2.8752530096479805 1.3871953125077108 0 0 0
162 54 2 0.52 3.3549568750068004 2.879020447530332 0.473744437712536 0 0 0
975 325 2 0.52 4.410604034366417 0.10255755274268766 2.8663093757380502 0 1 0
3171 1057 2 0.52 8.486942596891778 7.303199244181473 2.0908635709411554 0 1 1
3452 1151 2 0.52 2.0290290155895083 5.123295424184701 5.074383006114703 0 1 0
679 227 1 -1.04 1.2023630070306814 2.1562168485100837 2.0808025395131624 1 0 0
4405 1469 1 -1.04 5.473218343323628 0.10734786015058456 1.3851829114333656 0 0 0
681 227 2 0.52 1.2827766603814106 1.6542385639520913 2.891840939459185 1 0 0
1095 365 2 0.52 5.916689918573758 8.71636062700904 5.195389556116516 1 1 0
680 227 2 0.52 2.1026359491632474 2.385496467305331 1.8502134546260418 1 0 0
3328 1110 1 -1.04 8.092574421986352 8.83032480362433 2.917605140930895 0 1 0
3047 1016 2 0.52 2.627341655227429 8.75856237993509 5.012398943812721 1 1 0
4039 1347 1 -1.04 1.2175523151137921 7.372245599584989 2.2223981938288553 1 0 1
3732 1244 2 0.52 4.218681119727071 6.019166959984088 8.100697291399998 0 0 0
3731 1244 2 0.52 2.8619608372040206 6.686050069460966 8.181147183030015 0 0 0
4355 1452 2 0.52 3.8065463160789754 8.634302369935147 8.293841369689563 1 1 0
3730 1244 1 -1.04 3.769006627213036 6.77781106694219 8.47283142012241 0 0 0
4040 1347 2 0.52 1.495632557916545 7.913964395830477 1.4838564114244326 1 0 1
3845 1282 2 0.52 0.5521663231578596 7.7480981004419265 7.336072121803337 0 0 0
199 67 1 -1.04 6.034498395738044 1.0940907379131701 7.521073466302541 0 0 1
3170 1057 2 0.52 8.758169638011031 6.552478057203645 0.8044931797370699 0 1 1
3169 1057 1 -1.04 8.382174969099164 6.445862962262548 1.6782740850448918 0 1 1
3453 1151 2 0.52 0.5741256563240666 4.834240778334044 5.377035973535375 0 1 0
3393 1131 2 0.52 4.273948214103395 8.773570181267361 1.8090935967059902 0 0 0
4041 1347 2 0.52 1.9454807621477137 7.41948605687666 2.8421726327932717 1 0 1
4006 1336 1 -1.04 8.799794560316053 8.828908462899996 8.41479880605804 0 1 0
4094 1365 2 0.52 2.884788078884554 2.075648998662527 8.304504551534611 1 1 0
4095 1365 2 0.52 4.071604039553828 3.0106284161820365 8.20871020883213 1 1 0
1226 409 2 0.52 5.355229777109524 4.816638208176862 6.563215469209483 1 0 0
1225 409 1 -1.04 5.215430324363151 4.660697149694278 7.497223145457996 1 0 0
1227 409 2 0.52 5.9520547637808905 5.096187188295085 7.926134210286088 1 0 0
2248 750 1 -1.04 7.302443974830819 6.499346330883089 8.277736163363013 0 0 0
2249 750 2 0.52 7.504173706193862 6.327660471623577 7.357920463771776 0 0 0
4406 1469 2 0.52 5.154617158057402 0.1450589806664264 0.4833497804515882 0 0 0
2250 750 2 0.52 7.671967832497364 7.366016473765446 8.44675338748976 0 0 0
1950 650 2 0.52 0.08853459450378716 3.4514555565028977 3.137935401108224 1 -1 1
200 67 2 0.52 5.854239982296207 0.42597034878773665 6.859746096523918 0 0 1
823 275 1 -1.04 1.3845276601166205 0.0677604162667988 3.8648122048747573 1 1 0
691 231 1 -1.04 0.7231493522932779 0.17873492606816424 6.667518807693226 1 0 0
693 231 2 0.52 0.8695155646189668 0.0862943702615699 5.726103110176131 1 0 0
825 275 2 0.52 2.321074787163434 -0.02408824226855968 3.6896689984817734 1 1 0
310 104 1 -1.04 9.999594016190276 5.107512271524905 5.342735178479297 0 1 0
311 104 2 0.52 10.542581974629522 5.867188394884358 5.132287786983146 0 1 0
4289 1430 2 0.52 10.489597600800298 3.9247452186508758 4.141714754264213 0 1 1
89 30 2 0.52 11.460768299753502 7.474054925555084 3.5638905163186383 1 1 0
1033 345 1 -1.04 9.253947417123426 0.8015534561153314 4.714944900391545 0 1 0
4288 1430 1 -1.04 10.75036193662346 3.1619761509422206 3.6255586242903695 0 1 1
1034 345 2 0.52 9.773942982997864 1.3057175123631308 4.089121398229244 0 1 0
312 104 2 0.52 10.319253886278233 4.812886023694934 6.195521659109111 0 1 0
4290 1430 2 0.52 10.301186185497352 3.274176796088935 2.7877734490640713 0 1 1
90 30 2 0.52 10.874527451849819 8.232534997616503 4.73560927110288 1 1 0
88 30 1 -1.04 11.332540620936292 7.422574752991771 4.5110648900313155 1 1 0
4140 1380 2 0.52 15.065334851328576 2.211717131051537 8.128399219835437 -1 1 0
3161 1054 2 0.52 11.863122974021037 0.789004711223253 1.1451930153280179 0 0 0
1969 657 1 -1.04 12.672224069122796 8.214000067171428 6.746682094487256 0 1 0
1970 657 2 0.52 12.419811839385334 7.950022086309286 5.861902160323449 0 1 0
3601 1201 1 -1.04 12.856598471608162 2.7363451118954485 5.7106238951453046 0 1 0
3603 1201 2 0.52 12.359103226590651 2.8961563248609172 4.908632188582529 0 1 0
3602 1201 2 0.52 12.282336169923179 2.1865725871071526 6.243732533090111 0 1 0
553 185 1 -1.04 14.626137805774624 6.446827365974545 7.038657081180235 0 0 0
2706 902 2 0.52 15.1895070604209 0.2917068150806978 5.1083952431341055 0 -1 0
39 13 2 0.52 12.463406069271112 8.235221744767962 1.4869227229677338 0 0 0
634 212 1 -1.04 11.755179558515444 5.083951816178489 0.587059984915564 -1 0 1
37 13 1 -1.04 11.830025847955673 7.662402664173846 1.9192878882548041 0 0 0
554 185 2 0.52 14.048509477922124 7.08701630254479 6.6230424996802775 0 0 0
568 190 1 -1.04 16.436599338391204 1.819104118595321 1.9704835191730936 1 1 1
2704 902 1 -1.04 15.296983474695033 1.0119988217554154 4.487218870840952 0 -1 0
2705 902 2 0.52 14.925141234240531 1.772173498164433 4.934543864062012 0 -1 0
570 190 2 0.52 15.991930284802754 1.5206010766429172 2.763829097547307 1 1 1
1212 404 2 0.52 15.191659781884534 4.7032184874531495 5.878323555833053 0 0 0
635 212 2 0.52 12.553942882983389 4.609033246459285 0.8165405802189204 -1 0 1
1530 510 2 0.52 14.958278921797497 2.9919235355464924 1.2055269487942568 1 1 0
38 13 2 0.52 11.785948655632119 6.887391939211902 1.3592455529703769 0 0 0
4138 1380 1 -1.04 15.74107645549491 1.5801677981634104 7.881922923759584 -1 1 0
1210 404 1 -1.04 15.624729137152537 3.8496795046080994 5.890732354791571 0 0 0
569 190 2 0.52 17.04599204388834 2.4913271847503218 2.2754237097286345 1 1 1
1211 404 2 0.52 16.199921389634614 3.861265895365118 5.125715055487942 0 0 0
69 23 2 0.52 14.737806886312452 5.248814913323954 1.4244312440269427 1 0 0
67 23 1 -1.04 14.886441715916414 6.152220650942967 1.703711749371745 1 0 0
3988 1330 1 -1.04 13.841989270734363 3.5700471042029402 8.281009119009214 -1 1 0
1275 425 2 0.52 11.59141063971869 7.389258695995249 8.097004640471708 0 -1 0
3990 1330 2 0.52 13.5152569121534 3.2379528735905736 7.44483256597146 -1 1 0
256 86 1 -1.04 16.35701916493599 7.9562077997096505 5.522548086838862 -1 0 0
257 86 2 0.52 16.088288975545165 7.652623919397377 6.389642518215581 -1 0 0
932 311 2 0.52 15.114333580257238 8.645545642589237 4.1391293646883325 0 0 0
933 311 2 0.52 14.48016382149305 7.928272733039173 2.9664216082234858 0 0 0
1528 510 1 -1.04 14.339137374620094 3.674067800951972 0.9455754422912332 1 1 0
555 185 2 0.52 14.04527083204679 5.920637218487501 7.588156241798184 0 0 0
3285 1095 2 0.52 10.785652208428287 2.7805768900121315 7.537272299186592 0 0 0
68 23 2 0.52 15.581613923419082 6.4702091614023205 1.1276468666270074 1 0 0
4139 1380 2 0.52 16.482996275886695 2.118130635205485 7.605548529013134 -1 1 0
3284 1095 2 0.52 9.937818402049418 1.9578566973213352 6.590591511867976 0 0 0
3283 1095 1 -1.04 10.66690396398519 1.890011643273881 7.20708411686669 0 0 0
3607 1203 1 -1.04 10.288518508733965 4.38518418880711 8.00312260165952 1 0 0
3608 1203 2 0.52 10.69093697095393 5.244667732142037 8.127939507569574 1 0 0
3314 1105 2 0.52 17.27298312061367 3.9015558025928847 7.987231947741136 0 1 0
3239 1080 2 0.52 10.405151192390463 0.032291701757870585 7.735549909347054 0 0 0
3911 1304 2 0.52 16.47912938558475 6.498332069550546 3.015374978123833 0 0 1
931 311 1 -1.04 14.660429185166818 8.80283666758824 3.311202934640129 0 0 0
1035 345 2 0.52 9.790971337971976 0.033426827433516805 4.909415028551011 0 1 0
258 86 2 0.52 16.80682691974814 8.78494242055858 5.687180258413057 -1 0 0
1274 425 2 0.52 10.211675218798113 7.735507974896621 8.615016992540317 0 -1 0
1273 425 1 -1.04 10.803804467864646 6.9968286417175936 8.473710109714 0 -1 0
3609 1203 2 0.52 9.721628208709552 4.272529880525487 8.766127342512302 1 0 0
3207 1069 2 0.52 14.909615297612282 0.2111602168914379 7.198577823599128 0 1 0
3912 1304 2 0.52 16.71768365202917 6.524087811441405 4.510140409721403 0 0 1
3160 1054 1 -1.04 11.641707561103106 0.10387029245852153 1.7759052184335988 0 0 0
2807 936 2 0.52 9.002679199165685 4.722833202693744 1.5860712706056448 1 1 1
2806 936 1 -1.04 9.400359659716884 3.9070242762846945 1.2818708648085777 1 1 1
1529 510 2 0.52 14.353950309685986 3.6595837178796424 -0.011400329759599578 1 1 0
2808 936 2 0.52 10.190488439602827 4.183664553841655 0.8177604167154972 1 1 1
2060 687 2 0.52 17.11115640251671 7.539176615500298 8.605049631315685 0 1 0
2059 687 1 -1.04 16.737001467883477 8.419494304445674 8.640836380532031 0 1 0
3910 1304 1 -1.04 16.889703096145222 6.004279011106862 3.7250035032262585 0 0 1
3162 1054 2 0.52 10.697184857522167 -0.0164824008091996 1.677803579082569 0 0 0
3039 1013 2 0.52 17.368067488465787 0.1373880384109836 2.1323782056159972 0 -1 1
3329 1110 2 0.52 8.874733601947073 9.136610190008497 3.376569321767132 0 1 0
3391 1131 1 -1.04 4.798351470221886 9.194750585058568 1.1280354990119668 0 0 0
4356 1452 2 0.52 3.6314257095716407 9.465370175221365 7.040623803593593 1 1 0
193 65 1 -1.04 0.7525344291360537 16.189213177419223 1.2911814938261443 1 -1 0
100 34 1 -1.04 6.976130387078459 10.5852655227757 1.1103307778311968 0 0 1
102 34 2 0.52 6.124853868024762 10.149619220395364 1.0682305720102843 0 0 1
819 273 2 0.52 7.981034701666665 12.022961253522274 2.1968876467527934 0 0 0
101 34 2 0.52 7.478130325466708 10.201090495104813 0.3915558130666561 0 0 1
3048 1016 2 0.52 1.7649027032958753 9.69660060473226 5.829820826801443 1 1 0
3046 1016 1 -1.04 2.667809214730428 9.551452810521424 5.54711286892828 1 1 0
302 101 2 0.52 3.3625554272866847 10.78195327139202 4.334915292658593 0 0 0
301 101 1 -1.04 3.6194119688535324 11.204934814999634 3.5155599541017266 0 0 0
303 101 2 0.52 4.551747332255535 11.392453557400884 3.6242767025736575 0 0 0
2940 980 2 0.52 2.5659697783366355 12.883469739649891 4.164337900507266 0 0 0
380 127 2 0.52 2.5328879070243446 10.322927355985861 0.7755316476126243 0 1 0
381 127 2 0.52 2.6904110841379265 11.019150352644958 2.110580403041925 0 1 0
379 127 1 -1.04 2.077164686880104 10.903809630282996 1.3847310977344651 0 1 0
2931 977 2 0.52 7.248252545834582 11.866719940243737 4.2389082179223685 0 1 0
2930 977 2 0.52 6.576423155094691 11.425120325626288 5.521690444914168 0 1 0
2454 818 2 0.52 5.698352660986193 13.518214500623582 5.142587127313881 0 0 0
2452 818 1 -1.04 5.3250120452722705 14.338992288027812 5.463791810284361 0 0 0
2453 818 2 0.52 5.947091974034684 15.01093911228237 5.18498028325371 0 0 0
1267 423 1 -1.04 3.701485624699542 16.599754369025874 5.71031517763221 0 1 0
1269 423 2 0.52 4.347682063518171 15.898412092733704 5.627968265465207 0 1 0
598 200 1 -1.04 6.266841164299673 13.267237754809251 0.8524008174746259 0 0 0
600 200 2 0.52 6.3196784302146565 12.313259154394222 0.7943931172890992 0 0 0
486 162 2 0.52 1.9146759171465404 12.868529619393412 1.120042202029978 1 0 1
965 322 2 0.52 7.603472704432214 14.428167475284864 1.471676855321589 0 0 0
2929 977 1 -1.04 6.397134998606849 11.835656984160218 4.675790185460971 0 1 0
966 322 2 0.52 7.372498058226351 15.521345738080415 2.4931988523141317 0 0 0
964 322 1 -1.04 8.016450464826313 15.197837072310866 1.8631994227857211 0 0 0
2938 980 1 -1.04 2.465402774937655 13.675194468806147 4.692816917186077 0 0 0
2369 790 2 0.52 4.931696159054957 13.910342989711385 1.963336484893076 0 1 0
2939 980 2 0.52 3.3483452234538977 13.866268359458992 5.009258445622101 0 0 0
4118 1373 2 0.52 0.22461788159655657 10.745312219791105 1.2863200802755423 0 0 0
2787 929 2 0.52 5.1989000836287405 15.03306696425599 8.45564789933952 0 0 0
194 65 2 0.52 1.1956317493569664 15.341378669293391 1.2584209742320107 1 -1 0
542 181 2 0.52 1.8168093105693364 13.353795541032405 6.641807953050226 1 1 0
2368 790 1 -1.04 4.255160632723146 14.443746122627276 2.380484683266809 0 1 0
541 181 1 -1.04 2.3039295754484392 13.183695978724058 7.448041062297559 1 1 0
1268 423 2 0.52 3.1115681982930146 16.302427290890048 6.403009827986255 0 1 0
2085 695 2 0.52 0.8658559928323359 15.81680640057716 7.675014068927699 1 0 0
2370 790 2 0.52 3.4453503537300905 14.196380097536068 1.9341112950952404 0 1 0
3330 1110 2 0.52 7.842596259665458 9.562756585950929 2.3543232908766334 0 1 0
817 273 1 -1.04 8.75077146671838 12.106712740041774 2.759668990645335 0 0 0
2083 695 1 -1.04 1.6555598631237212 16.2589953281192 7.363455744362252 1 0 0
356 119 2 0.52 2.796503001096821 16.930691932789646 4.206796023130861 0 0 0
1478 493 2 0.52 7.7674947094859785 16.285995302742084 4.603244654644061 0 1 0
357 119 2 0.52 1.66145783218948 16.748935177491433 3.221640127740783 0 0 0
1477 493 1 -1.04 6.870488185928301 16.235334421744255 4.273025618500634 0 1 0
4354 1452 1 -1.04 4.069228944485914 9.46232169882009 7.89182934533438 1 1 0
2226 742 2 0.52 6.0203549959679945 9.941757827847042 7.900760881062794 0 1 0
2224 742 1 -1.04 6.74143373823292 10.398511613937506 7.467571238590057 0 1 0
2785 929 1 -1.04 5.592002434173481 15.889046891712663 8.625943952692115 0 0 0
2225 742 2 0.52 6.834127229596406 11.217198856745613 7.954799065301657 0 1 0
4008 1336 2 0.52 8.111094459627468 9.414847368294694 8.100793056976281 0 1 0
543 181 2 0.52 1.6900357871732345 13.40070937456657 8.149661645477686 1 1 0
839 280 2 0.52 4.865982481862019 16.40675028717201 1.2584375167359614 0 0 1
1479 493 2 0.52 6.531288134322006 17.125970787591843 4.362143679633534 0 1 0
2084 695 2 0.52 1.912227424457863 16.830187392140832 8.087398579783317 1 0 0
630 210 2 0.52 0.7436527731275543 13.79289114051718 5.234059845183237 1 0 1
628 210 1 -1.04 -0.02358192127851187 13.797798596477119 5.806387269456819 1 0 1
2137 713 1 -1.04 0.16257051901817887 9.401954133586704 6.549940929515105 0 1 0
1792 598 1 -1.04 4.831548699223293 13.429291141840261 8.08451663763789 0 0 0
1793 598 2 0.52 3.926563711642022 13.26193085790221 7.821411055004791 0 0 0
1794 598 2 0.52 5.290749709034588 13.608661279894264 7.264033471349407 0 0 0
3881 1294 2 0.52 0.6831757129281357 17.648449149668654 6.495296907878474 0 0 1
838 280 1 -1.04 5.361508090844235 17.137575306765036 0.8888688470957211 0 0 1
355 119 1 -1.04 2.1388558107223217 17.41871491952829 3.711250286182981 0 0 0
485 162 2 0.52 2.4041438126112156 13.982947184873739 0.21982563873171276 1 0 1
484 162 1 -1.04 1.9127797974379102 13.82101399756091 1.0251646278781938 1 0 1
4391 1464 2 0.52 12.311232049576288 17.448869918458424 6.469044436037243 0 1 0
818 273 2 0.52 9.494053377836106 12.057594252521707 2.1585440329294516 0 0 0
3165 1055 2 0.52 9.73789970295465 13.155682380115657 3.8173413972100123 1 1 0
785 262 2 0.52 8.881543074152384 12.079172234428796 8.330916287186701 0 0 0
1971 657 2 0.52 13.259157544886133 8.95886845560532 6.616635876009871 0 1 0
465 155 2 0.52 10.685384803247551 10.17593086004111 4.403001056206342 0 0 0
463 155 1 -1.04 10.016260485875158 9.66794790855748 4.861757864224393 0 0 0
464 155 2 0.52 9.725728734238483 10.239960813296308 5.572127048594869 0 0 0
242 81 2 0.52 16.938649170151642 10.651448031186131 1.5088382093634327 0 0 0
1608 536 2 0.52 10.450982191963469 9.147404117555986 1.5068969123895906 0 0 1
1606 536 1 -1.04 10.040598733915473 9.968995322537124 1.2370726190833488 0 0 1
1607 536 2 0.52 9.393822724264437 9.70996845395539 0.5807055611861504 0 0 1
3164 1055 2 0.52 11.047178364478292 13.758648136811935 4.280069043357072 1 1 0
3163 1055 1 -1.04 10.10137290003089 13.804448991025287 4.420019553090919 1 1 0
2431 811 1 -1.04 16.910289478486572 15.268280939875352 5.883964040349102 0 0 0
403 135 1 -1.04 9.901335496157078 12.039132763022964 6.723376301284318 1 1 0
405 135 2 0.52 9.664706079479991 12.647397947266668 6.023196449531902 1 1 0
2902 968 1 -1.04 14.267718783023398 10.306090679076176 6.310413877255465 1 0 0
2162 721 2 0.52 9.504747337285608 15.154889644245953 5.189021710252232 0 0 0
4390 1464 1 -1.04 11.97143992042854 16.800154183623683 5.852650856944255 0 1 0
2903 968 2 0.52 15.092229118898414 10.662777136179947 5.979975808392289 1 0 0
2904 968 2 0.52 13.647123695314676 11.031448979627436 6.240065366729699 1 0 0
1830 610 2 0.52 13.138463027993291 9.960060784239712 3.6192464440928602 1 -1 0
2393 798 2 0.52 13.233400510499226 13.937283050018676 2.188164776024 0 0 1
1828 610 1 -1.04 12.33392605814154 10.474425187880886 3.5530545683933514 1 -1 0
1829 610 2 0.52 12.634247833534411 11.375170679787871 3.4318265599377207 1 -1 0
3096 1032 2 0.52 16.14312784554338 12.295781157403066 8.087996820056217 0 1 0
2749 917 1 -1.04 10.489674458993472 14.800942947674667 1.0464313231968367 1 0 0
2751 917 2 0.52 9.646883876435348 15.02126054642513 1.4431630078807913 1 0 0
404 135 2 0.52 10.822814993888153 12.22621514541404 6.902562119529414 1 1 0
2750 917 2 0.52 10.797776749612092 15.623168755487178 0.6653151473624551 1 0 0
2161 721 1 -1.04 9.355095145780076 16.06375309438226 5.4494123602071065 0 0 0
1587 529 2 0.52 16.079094840047325 15.569210203737455 4.310191478804357 0 1 0
4392 1464 2 0.52 12.547855114977102 16.043363576777868 5.9586949085618945 0 1 0
1586 529 2 0.52 15.583243121280567 15.022351731484886 2.988460766404931 0 1 0
1585 529 1 -1.04 15.407053586481506 15.69990794612527 3.641229227522259 0 1 0
2163 721 2 0.52 10.226971688256919 16.401229803122057 5.654772058631069 0 0 0
3056 1019 2 0.52 14.041982220273015 15.074563341022666 4.953956973506104 0 0 0
3055 1019 1 -1.04 13.52460521236312 14.600315583105045 5.604834792913338 0 0 0
3057 1019 2 0.52 14.156834126708203 14.35165503423465 6.279139153941436 0 0 0
2783 928 2 0.52 15.889932702715798 13.741167573131545 1.0551924044664973 0 0 0
2784 928 2 0.52 15.415052697273186 12.76466027954515 2.110094142914992 0 0 0
2782 928 1 -1.04 15.367867309073523 13.68620248976991 1.855603801419455 0 0 0
2456 819 2 0.52 11.473514033150535 10.75548344436837 0.757123076758466 0 0 0
3094 1032 1 -1.04 16.0699757461851 13.12373513749007 7.6132623498335805 0 1 0
2455 819 1 -1.04 12.15153089840361 11.340880658817154 0.419728542499246 0 0 0
2392 798 1 -1.04 12.471153021336566 13.431460924730192 2.4698642308226564 0 0 1
2394 798 2 0.52 11.722259235373002 13.902036327578003 2.1038741659577984 0 0 1
2433 811 2 0.52 16.458980297912706 14.770483684409585 6.5656896126877795 0 0 0
3956 1319 2 0.52 16.791365957324064 11.972451159520078 5.332681329661533 1 0 0
243 81 2 0.52 15.584427039137134 10.28986853830626 2.080885307055148 0 0 0
241 81 1 -1.04 16.01363895466094 10.895462529424847 1.4765138240304725 0 0 0
2457 819 2 0.52 12.547242233621107 11.725692793254257 1.2017541177653923 0 0 0
3955 1319 1 -1.04 16.941152637752914 11.027047389211186 5.335420207503864 1 0 0
2683 895 1 -1.04 16.2357304357197 17.193463150430077 0.4312620229110158 -1 0 0
2684 895 2 0.52 16.805100211152006 16.970525474877814 1.1677052940755495 -1 0 0
888 296 2 0.52 12.79327495227326 13.102887062194709 6.104909070042026 1 0 0
3095 1032 2 0.52 16.225370444533276 13.795567266890968 8.27713426340572 0 1 0
2447 816 2 0.52 9.438519982360884 15.420932501945757 7.279789746962217 1 0 0
886 296 1 -1.04 12.481142682220474 12.378461852722165 6.647139096757955 1 0 0
887 296 2 0.52 12.502280615941993 12.721063465022482 7.540676540297513 1 0 0
2448 816 2 0.52 9.283693606576563 14.471931995439581 8.449115203706732 1 0 0
2446 816 1 -1.04 9.856569564611265 15.153881883689875 8.098416862363017 1 0 0
2432 811 2 0.52 17.68825629291257 14.748326918668047 5.682352305863696 0 0 0
4197 1399 2 0.52 12.705614023144873 16.89258885777459 8.759624880870872 0 0 0
1187 396 2 0.52 17.447181801119047 16.824389508858278 3.4382362276883094 -1 0 1
4067 1356 2 0.52 17.691644083989917 11.229823671410069 8.81547330042265 -1 1 0
2685 895 2 0.52 15.426800743582584 17.503286912471793 0.8385381327594466 -1 0 0
1433 478 2 0.52 15.602649632046079 16.886930865449525 8.227157377024835 0 0 0
618 206 2 0.52 14.219436638431391 17.37998709970771 3.8228867129153943 1 1 1
3335 1112 2 0.52 12.828663142194836 17.267502260398437 0.18816820247154056 0 0 0
1432 478 1 -1.04 15.554017555149377 17.754481025045248 7.825630937444396 0 0 0
617 206 2 0.52 13.029257681401248 17.774433827930856 4.671285805686566 1 1 1
2232 744 2 0.52 7.737638346576853 1.7629083390209095 9.014856263696904 0 1 0
2019 673 2 0.52 0.008492755599325127 1.5162347128063631 10.901841732241907 1 0 0
415 139 1 -1.04 5.42937008708724 0.17092013783383017 17.056015874810353 0 0 0
2231 744 2 0.52 7.883650998407349 1.6230306011479332 10.515192797855565 0 1 0
2230 744 1 -1.04 8.393389532960002 1.676445760085388 9.706771319177642 0 1 0
3333 1111 2 0.52 5.012466958012442 1.2017667930543072 11.069145108802692 1 0 0
1887 629 2 0.52 7.203447387111252 0.299440804030638 14.888401064840595 1 1 0
1598 533 2 0.52 1.9599679175539517 1.7253207535928172 10.672929080482842 0 1 0
1805 602 2 0.52 2.6302605771546004 1.2884971850053815 12.299973109442634 0 0 0
1086 362 2 0.52 7.931203791063807 4.811017804888255 15.21278119466472 0 1 0
3332 1111 2 0.52 6.004398876840472 1.9599423991401743 11.92537872793051 1 0 0
1599 533 2 0.52 1.4290835198188414 3.0964224386967203 11.033674305156602 0 1 0
4235 1412 2 0.52 0.33040976056804 7.891450175090663 9.295756099998213 1 1 0
873 291 2 0.52 8.294260253918386 5.441412775660059 9.615107382400964 1 0 0
287 96 2 0.52 2.0247871530207697 6.316029866909805 14.524484592889005 0 0 0
286 96 1 -1.04 1.7254612310048192 6.856450829260426 13.7933341187311 0 0 0
288 96 2 0.52 2.394437174733564 7.535641542340226 13.707293419184966 0 0 0
387 129 2 0.52 2.14294867653363 7.671768911276453 10.587092134113057 0 0 0
298 100 1 -1.04 5.382456737319058 5.837199542102495 11.43919569206621 1 0 0
584 195 2 0.52 0.7915269981118701 4.905805336753408 12.517041658285681 0 0 0
585 195 2 0.52 1.9660402909791548 5.389362095566087 11.693277992139327 0 0 0
583 195 1 -1.04 1.5036481093494019 4.594293871840607 11.958404056474182 0 0 0
3388 1130 1 -1.04 3.316465346864616 2.592913352188531 13.778618452558144 0 -1 0
3389 1130 2 0.52 3.1195916418869607 3.1241416552379335 14.550155278852019 0 -1 0
3390 1130 2 0.52 3.0971282654829633 3.1566368029487406 13.036770115096921 0 -1 0
2034 678 2 0.52 6.042472646798292 4.240610006213619 11.906938323269722 1 0 0
2033 678 2 0.52 7.467191989683838 3.8254713160431315 11.607388905460962 1 0 0
871 291 1 -1.04 8.58405612887996 4.7686559922422935 10.231263613579905 1 0 0
2032 678 1 -1.04 6.733853966326813 3.644799551930341 12.195440686472791 1 0 0
3962 1321 2 0.52 6.620506953134369 6.521222426463125 12.728316895300727 1 0 0
3961 1321 1 -1.04 7.122881750503254 6.86944688649945 13.46492474782538 1 0 0
3963 1321 2 0.52 6.478198183703403 6.981350744476274 14.163560894376733 1 0 0
3331 1111 1 -1.04 5.93258883277981 1.2116671509473045 11.332791763414834 1 0 0
3147 1049 2 0.52 7.015308493233399 3.454895476870291 13.889369835745303 1 1 0
299 100 2 0.52 4.515070794907617 6.241699914862639 11.455099004423113 1 0 0
1597 533 1 -1.04 1.390524952383723 2.4248865566493385 10.35265695148623 0 1 0
4309 1437 1 -1.04 5.46259741415623 0.6606203319330332 14.321027652746452 1 1 0
1084 362 1 -1.04 8.389177006618759 5.6370349480915465 15.368306282571883 0 1 0
1085 362 2 0.52 8.131549142568927 6.1960013275877674 14.635219445793314 0 1 0
4150 1384 1 -1.04 3.014949875086115 5.0428044529256315 15.59525624931788 1 0 0
4151 1384 2 0.52 3.8750081753204904 5.394315266823032 15.365100415346317 1 0 0
4310 1437 2 0.52 4.690758969718318 1.2159280786517346 14.210888821620173 1 1 0
416 139 2 0.52 5.488979676986001 0.3825379364628402 16.12440627626839 0 0 0
3816 1272 2 0.52 8.521894782318991 8.327723852201046 14.458841002484816 0 0 0
3145 1049 1 -1.04 7.384546024025476 3.362237762487619 14.76761241830433 1 1 0
300 100 2 0.52 5.701155999983876 5.987688155156822 10.549242998201034 1 0 0
385 129 1 -1.04 2.8085681548998735 7.054953906639393 10.89159467937998 0 0 0
386 129 2 0.52 3.314874372490101 6.841911234861631 10.10769502124045 0 0 0
107 36 2 0.52 4.912916894630847 7.737114419852058 16.05387256239726 0 1 0
106 36 1 -1.04 5.333126514498672 6.971448212765184 15.662195431719788 0 1 0
4152 1384 2 0.52 2.742970131563415 5.553871607095144 16.357535215997665 1 0 0
108 36 2 0.52 6.129377170347087 6.844534646344005 16.17805362901748 0 1 0
92 31 2 0.52 7.27520762432072 3.2386144024303833 16.63904082587314 0 1 0
4236 1412 2 0.52 0.17388787691932625 8.280680919623935 10.750367910491786 1 1 0
124 42 1 -1.04 7.2908339142029375 6.75915765201882 17.64675536850076 0 1 0
126 42 2 0.52 8.020513055459583 6.240325113586403 17.3082099684748 0 1 0
348 116 2 0.52 0.18484298672111518 5.977270646892325 16.583396036480277 1 0 0
3146 1049 2 0.52 8.181076674016973 2.847001294871945 14.639932560601377 1 1 0
4234 1412 1 -1.04 0.6373180585759898 8.521131139888416 9.948091151321712 1 1 0
3706 1236 1 -1.04 7.484390016813682 8.747780920857828 11.408690492722114 1 -1 0
3707 1236 2 0.52 7.697559137360296 8.265074530891981 12.207305110126232 1 -1 0
2538 846 2 0.52 2.78117442619654 8.830086374655158 16.39475331491715 0 0 0
2071 691 1 -1.04 0.16897111895885453 0.8959896692996283 16.956712898152407 0 1 0
3894 1298 2 0.52 4.133591604390981 1.345150167892826 17.732467294778555 1 1 0
91 31 1 -1.04 7.573095579206954 3.436156089656429 17.52700022142092 0 1 0
417 139 2 0.52 6.280316336723629 0.42331096851533395 17.414374897045963 0 0 0
1804 602 1 -1.04 2.9585686643960605 0.7440734708781203 11.58439749544525 0 0 0
2466 822 2 0.52 8.610392908332361 0.11794486731724602 16.904376251483097 0 1 0
2605 869 1 -1.04 17.071058351751493 0.7206813815725331 17.683243348910562 1 1 0
2211 737 2 0.52 15.463092018056805 4.315410222807141 9.093146017948227 1 0 0
3989 1330 2 0.52 13.214638016592907 3.2485570651816986 8.92854784274492 -1 1 0
2989 997 1 -1.04 10.827384824827853 2.0976648936765128 10.987778323321418 1 -1 0
362 121 2 0.52 17.6083249350535 1.027239020433632 14.205668133014273 -1 1 0
4317 1439 2 0.52 9.878978779802189 0.9316363968355027 12.115573280171347 0 1 0
872 291 2 0.52 8.90040066431636 5.258620491158644 10.990271363672864 1 0 0
3814 1272 1 -1.04 9.407162991568827 8.52012007380167 14.1497848075859 0 0 0
3815 1272 2 0.52 9.97978428457544 8.039331614831424 14.747429478369845 0 0 0
2990 997 2 0.52 10.606618448034412 2.7457718897788803 11.656696381442638 1 -1 0
1520 507 2 0.52 11.297852503013404 0.17978188050150787 14.820028520764108 0 0 0
1146 382 2 0.52 10.590476882882552 6.004136913110411 11.95685210724985 0 1 0
3136 1046 1 -1.04 11.93765318078733 6.04026055432854 10.848949501450907 -1 0 0
3137 1046 2 0.52 11.452881743966358 6.2465139610307805 10.049769905698957 -1 0 0
3262 1088 1 -1.04 10.048582702683484 3.0883416479151276 13.438937919970048 1 2 0
3138 1046 2 0.52 12.180009111365626 6.893193679053645 11.2095053607296 -1 0 0
3263 1088 2 0.52 10.724658561557757 3.216747465491271 14.104268829412874 1 2 0
987 329 2 0.52 13.398652634416967 5.249791664354016 11.853104927785026 1 1 0
985 329 1 -1.04 13.92449705425803 4.693467477792042 12.427755156679243 1 1 0