ITEM: TIMESTEP
0
ITEM: NUMBER OF ATOMS
8640
ITEM: BOX BOUNDS
0.000000 43.744068
0.000000 45.460136
0.000000 42.860234
ITEM: ATOMS id type x y z vx vy vz mass
109 2 2.185110 6.171540 3.570100 0.00428886 0.00277857 0.00113113 15.9994
110 1 1.726050 7.005900 3.666760 -0.0104807 -0.00556577 0.00305502 1.00794
111 1 3.020310 6.402820 3.163670 0.00359565 0.0194922 0.00922028 1.00794
1081 2 4.381640 8.283600 4.589160 0.00168266 0.000956195 0.00101187 15.9994
1083 1 4.188220 7.901110 5.445040 0.00842582 -0.00509404 -0.00016955 1.00794
4321 2 3.834880 3.255900 3.702570 0.00060922 0.00071884 0.00637825 15.9994
4322 1 4.038280 4.155930 3.957130 -0.016595 -0.000637774 0.0249226 1.00794
4323 1 3.464070 3.333100 2.823490 0.0122919 0.0103845 0.00230679 1.00794
5511 1 5.759550 2.850640 4.385010 0.00629575 -0.0158872 -0.0116331 1.00794
5509 2 6.683770 3.064710 4.512410 -0.000850705 0.00532736 0.00453374 15.9994
5510 1 6.731750 3.397180 5.408740 -0.0242874 0.00713125 0.00511482 1.00794
3368 1 5.439820 6.067040 2.338900 -4.82417e-05 0.013021 -0.0147334 1.00794
3367 2 4.737050 6.608880 2.697740 -0.00380606 -0.00382883 0.00330851 15.9994
3369 1 5.123870 7.024000 3.468640 0.00202197 -0.004711 0.000859653 1.00794
7561 2 2.148180 1.855280 6.222590 -0.00695013 0.00351002 -0.000513017 15.9994
5402 1 1.324540 4.406300 3.783700 -0.00362216 -0.0089856 -0.0176785 1.00794
7563 1 2.706250 1.263320 6.726960 -0.0128064 0.00147099 0.00357524 1.00794
7562 1 1.319010 1.385480 6.133210 -0.00115569 -0.00216365 -0.0243858 1.00794
7684 2 6.724150 5.735410 1.602400 -0.00400622 -0.00300001 0.00304158 15.9994
2165 1 2.348140 3.886790 6.444900 0.00586198 0.00783793 -0.0107027 1.00794
2162 1 0.448152 2.487510 1.237140 -0.014055 0.0122288 -0.000122374 1.00794
7686 1 6.806600 4.936070 1.082310 0.0313393 0.00573514 -0.00482452 1.00794
5403 1 1.725040 3.202810 4.610190 -0.00718706 0.00570369 0.00545019 1.00794
5401 2 1.011420 3.549940 4.074950 -0.00874934 0.000257787 0.00399721 15.9994
2163 1 0.211383 2.563900 2.730460 0.015683 -0.0149333 0.00598783 1.00794
3350 1 6.265100 2.430870 1.024940 0.00598607 0.0013967 0.00767473 1.00794
2271 1 4.048190 7.806740 1.602770 -0.0184224 -0.00337545 0.00756427 1.00794
1082 1 3.523520 8.493610 4.220690 -0.0017347 -0.00712146 0.00436583 1.00794
1172 1 3.538730 1.139650 3.989980 0.00118108 -0.00295154 0.0258223 1.00794
6482 1 3.622470 6.139060 6.817160 0.0123217 -0.00542974 -0.0102794 1.00794
2054 1 1.804350 5.779610 1.839870 -0.00462535 -0.0142428 -0.00351356 1.00794
2161 2 -0.055072 2.085620 1.945290 -0.00269781 0.0018002 0.00203849 15.9994
2055 1 1.178170 6.666500 0.784783 0.00617006 0.00211185 0.00382837 1.00794
125 1 4.638820 3.828390 1.016800 -0.000618715 -0.00531645 0.0014651 1.00794
2053 2 1.574180 5.804270 0.911084 -0.00210317 -0.00280802 -0.00383614 15.9994
124 2 3.723420 3.997840 1.239430 -0.000389258 -0.00719421 0.00383576 15.9994
2269 2 3.621870 8.480850 1.073560 0.00461414 0.00605364 0.00101542 15.9994
7685 1 7.441040 5.685340 2.234690 0.00193169 0.025441 -0.00143414 1.00794
4431 1 8.203670 3.812010 3.426220 0.00528288 -0.0108319 -0.00213043 1.00794
4429 2 8.642430 4.529380 2.968940 -0.00283649 -0.000535194 0.00622713 15.9994
4430 1 9.224380 4.912180 3.625470 0.0122358 -0.0182504 0.00318218 1.00794
217 2 10.625200 5.414910 4.507400 -0.00474704 7.46086e-06 0.00279223 15.9994
218 1 10.286700 6.304600 4.406690 -0.0216402 -0.00939193 -0.0235689 1.00794
219 1 10.633900 5.267090 5.453080 -0.0136169 0.0236876 0.00657335 1.00794
3459 1 12.415600 3.208570 1.967290 0.0350595 0.00897978 -0.0153163 1.00794
4537 2 12.521800 3.414530 3.668660 -0.00100237 -0.00274392 -0.0038805 15.9994
4538 1 13.272400 3.758010 4.153220 0.000333774 -0.0275379 0.0116482 1.00794
4539 1 11.797900 3.994520 3.904880 0.00903611 0.00996426 -0.00433018 1.00794
5617 2 10.091500 7.960830 4.005280 -0.00308538 -0.000632931 0.00466156 15.9994
5618 1 10.866700 8.475690 4.229370 2.58989e-05 0.0121342 -0.0354735 1.00794
3457 2 12.137900 3.392880 1.069970 -0.00286646 -0.0016813 -0.0057755 15.9994
1388 1 12.447500 1.645130 4.067460 0.00635393 -0.0103565 -0.00695799 1.00794
5727 1 13.576200 8.257330 4.683540 -0.00683241 -0.0330501 0.0052149 1.00794
2379 1 9.692580 7.414990 2.038800 -0.0124299 -0.00755676 -0.00102878 1.00794
2377 2 9.580620 7.404190 1.088230 0.000289524 0.00377537 -0.00266041 15.9994
1280 1 7.867600 2.035220 4.507590 0.00901336 0.00257215 -0.00224399 1.00794
7793 1 9.514340 4.778340 1.358770 0.00877257 -0.00170006 0.00922218 1.00794
5725 2 14.406100 7.878580 4.393450 0.00409142 -0.00526389 0.000187722 15.9994
1420 2 14.397800 7.312820 1.655450 0.00305719 -0.00344276 0.00544929 15.9994
1281 1 8.221710 1.135140 5.672220 0.00489826 0.00733399 0.00268898 1.00794
1279 2 8.301990 1.209460 4.721290 -0.00293434 -0.00281772 0.00123923 15.9994
2378 1 9.821120 6.514890 0.828342 -0.0153294 0.00102724 -0.00772014 1.00794
7794 1 10.895900 4.354980 0.907069 0.000380315 -0.00713908 -0.0113351 1.00794
1422 1 14.415800 7.284980 2.612080 -0.0118751 -0.0185961 0.00528508 1.00794
326 1 14.884900 5.979880 4.896890 -0.014851 -0.00672614 -0.0116078 1.00794
325 2 14.910600 5.024530 4.843210 0.00513473 -0.00681946 -0.000278761 15.9994
327 1 14.786000 4.730040 5.745430 0.0299281 0.00162889 0.00589693 1.00794
433 2 19.083600 4.912650 4.403070 -0.00294348 -0.00138517 0.00481617 15.9994
434 1 19.131800 5.856690 4.553750 -0.0166228 0.000817243 -0.00461067 1.00794
435 1 19.050500 4.530990 5.280260 -0.00355611 0.00721794 0.00853414 1.00794
3567 1 16.058100 3.171950 1.668540 -0.00250025 0.00988691 -0.0065369 1.00794
4645 2 16.369100 3.209670 3.676800 0.00162669 0.00217164 0.00400283 15.9994
4646 1 17.238500 3.570790 3.503860 0.00878639 -0.0182791 -0.0027268 1.00794
4647 1 15.886500 3.929760 4.082820 0.0236441 0.0115961 0.0134653 1.00794
4753 2 20.727300 2.857730 4.235350 0.00364007 0.00817663 0.00328915 15.9994
4755 1 20.164500 3.623490 4.349690 7.66787e-06 0.00668224 -0.00460144 1.00794
2595 1 19.296200 7.266540 1.058440 -0.0109594 -0.00522686 0.0020111 1.00794
6914 1 19.951900 7.509110 6.160960 0.00477075 0.00847915 0.0019584 1.00794
6913 2 19.581300 7.409290 5.284070 -0.00250184 0.000819781 0.00590024 15.9994
3675 1 20.999100 2.431500 2.295720 0.00817388 -0.00196825 0.00657759 1.00794
6915 1 19.131800 8.237840 5.117750 0.0187907 0.00952088 -0.00833412 1.00794
1496 1 16.460700 1.566920 4.147290 0.0172973 5.02575e-05 0.0104039 1.00794
3673 2 21.261300 2.528930 1.380300 -0.00448926 0.00229681 0.00340595 15.9994
5833 2 21.372500 8.309310 1.694720 0.000144884 0.00176425 0.00552623 15.9994
1421 1 14.871800 8.113210 1.429720 0.0270155 -0.0121753 0.024788 1.00794
3565 2 16.517300 3.077610 0.833998 0.00378642 0.00448226 -0.00246913 15.9994
1515 1 21.642000 7.451230 5.389450 0.000701949 -0.0032521 0.0118976 1.00794
4754 1 21.614400 3.215410 4.197230 0.0035841 0.0101123 0.0203442 1.00794
3674 1 21.253300 1.637320 1.032170 0.00364875 0.0024118 0.00291622 1.00794
1604 1 20.765800 1.028420 4.677860 0.00908508 0.00461276 0.0203971 1.00794
19 2 0.405686 10.991300 5.249890 -0.00389183 0.00881762 -0.00279497 15.9994
4449 1 5.425200 9.788080 4.485130 -0.00608579 0.000634068 -0.00695093 1.00794
6606 1 5.934850 10.348200 2.367750 0.00846235 0.00450436 -0.0113788 1.00794
4447 2 5.953120 10.516500 4.158130 0.00415442 -0.00397185 -0.00067271 15.9994
4448 1 5.420860 11.293800 4.327790 0.00407064 -0.000410482 -0.0172525 1.00794
127 2 4.166880 12.615600 4.983440 -0.00193019 0.00118937 0.00408102 15.9994
128 1 3.225400 12.745500 4.869460 -0.00356602 -5.01834e-05 0.0161725 1.00794
129 1 4.262880 12.343800 5.896220 0.00706688 -0.0285018 -0.00569418 1.00794
1099 2 1.731540 15.397100 4.915700 0.00169405 -0.0102474 0.00224355 15.9994
1101 1 2.102170 15.432600 5.797520 0.00875482 -0.0012306 -0.00108281 1.00794
4339 2 1.717730 9.189870 3.806930 0.00315366 -0.00012158 -0.00177274 15.9994
4340 1 1.430270 9.555570 2.970360 -0.0178864 -0.0102758 0.00101804 1.00794
4341 1 1.290510 9.735810 4.466980 -0.00147127 -0.00874546 0.00236706 1.00794
5527 2 3.772300 15.359000 2.912620 0.00435731 -0.000785944 0.00394625 15.9994
5528 1 4.463400 15.677600 3.493230 0.00142106 0.0155491 -0.00152522 1.00794
5529 1 3.022220 15.214100 3.489330 0.00534704 0.00328023 0.00625512 1.00794
1209 1 5.877030 15.889800 5.335360 0.00202273 -0.00649678 -0.0217254 1.00794
2288 1 4.432940 13.985200 1.915070 -0.00917364 0.00055598 -0.00922038 1.00794
5420 1 0.613030 14.238100 4.482170 0.00925111 -0.00764269 -0.00381361 1.00794
7594 2 -0.060366 10.508800 1.275720 -0.00116971 -0.0012531 0.00254843 15.9994
6515 1 1.352550 14.507000 0.900884 -0.00665751 -0.00112894 -0.0187074 1.00794
21 1 0.835689 11.334100 6.033360 -0.0112924 0.0179501 -0.0027249 1.00794
2289 1 5.675620 13.474000 1.217690 0.008115 0.0104513 0.0143433 1.00794
6516 1 2.586540 15.256900 1.355800 -0.000160897 -0.0207118 -0.0040543 1.00794
2287 2 4.719830 13.460800 1.167440 0.00902616 -0.00369805 0.000752745 15.9994
7812 1 5.934390 13.471400 4.017540 0.00623622 -0.00193908 -0.00839334 1.00794
6605 1 5.544960 11.349900 1.301660 -0.0102821 0.0124929 0.00298297 1.00794
6604 2 5.499500 10.418600 1.518190 -0.000561474 0.00985989 -0.00631288 15.9994
7811 1 6.740000 13.982200 5.193110 -0.000830342 0.00243608 -0.00545164 1.00794
7810 2 6.723140 13.967700 4.236170 0.00232561 0.00301157 -0.00551596 15.9994
6607 2 6.502490 14.656100 6.807140 -0.00141826 0.00231305 0.00280419 15.9994
2179 2 0.230701 13.167900 1.780270 0.00912158 0.000978757 0.00317919 15.9994
5419 2 -0.027041 13.548600 4.305570 0.000628411 -0.00167251 0.00412837 15.9994
20 1 0.069173 11.767400 4.801840 -0.0102207 0.0026152 -0.00879299 1.00794
2181 1 0.202649 13.276200 2.730910 -0.0107304 0.00891356 0.00168957 1.00794
2180 1 0.040534 12.240500 1.638640 0.00688304 0.000902483 0.00667638 1.00794
2270 1 4.071390 9.292010 1.310620 0.0271711 -0.00581531 -0.00117836 1.00794
5619 1 9.385900 8.604530 3.942200 -0.00589166 -0.00541233 -0.0128031 1.00794
7704 1 7.301970 13.581700 2.683940 -0.0076454 0.00250696 -0.00534231 1.00794
7702 2 7.267600 13.110900 1.851260 -0.00258633 -0.00235113 -0.00280441 15.9994
1191 1 8.027970 9.310780 5.747210 -0.00874042 -0.0101271 -0.0188237 1.00794
1189 2 8.281250 9.874540 5.016280 -0.000476985 0.00125441 -0.00718485 15.9994
2487 1 11.876700 8.960110 5.595350 0.0136877 0.0166905 0.000256419 1.00794
1190 1 7.451700 10.191500 4.659020 0.00416628 0.0207497 -0.000676255 1.00794
2485 2 12.123600 9.255900 4.719130 -0.00704265 -0.000406892 -0.0113499 15.9994
2486 1 11.897900 10.186000 4.707340 0.0154635 0.00500404 -0.0158249 1.00794
1298 1 13.472100 12.142300 5.944060 0.00873883 0.00762916 -0.0127572 1.00794
235 2 10.626000 11.372900 4.341530 0.00228067 0.00288664 0.00399548 15.9994
236 1 10.527500 11.848200 3.516540 0.00257498 -0.000448833 0.00204011 1.00794
237 1 9.730320 11.162700 4.605790 0.00130487 0.0179195 0.0126722 1.00794
4555 2 12.168300 13.540700 5.050510 0.000440803 0.00290022 0.000503836 15.9994
4556 1 11.874000 14.367300 5.433090 -0.0153474 -0.00696732 0.00966441 1.00794
4557 1 11.385100 12.990500 5.036430 0.0117523 -0.0131168 -0.00235152 1.00794
5745 1 9.667650 15.438000 4.328130 0.00953101 -0.00367625 -0.0240797 1.00794
5743 2 8.909810 15.930500 4.012930 7.2648e-05 -0.000904962 0.00295972 15.9994
5744 1 8.171300 15.331800 4.124340 0.00227719 0.000822147 0.0268018 1.00794
1315 2 10.792600 15.508900 6.271740 0.00392127 -0.00202312 0.00169349 15.9994
2504 1 13.572400 13.995800 3.807220 -0.00238442 0.0145727 0.0132162 1.00794
2503 2 14.094000 14.364600 3.094380 -0.00130996 -0.00168082 0.00559039 15.9994
2396 1 10.663400 16.029900 1.309020 -0.0125828 -0.00110411 -0.00965622 1.00794
2505 1 14.334100 15.239300 3.400330 -0.0102302 0.00909636 -0.0182212 1.00794
7703 1 8.162200 12.798900 1.714840 0.00140911 0.00898322 -0.00253275 1.00794
3475 2 10.093100 12.562000 1.949630 -0.00087968 0.00669352 0.00227948 15.9994
3476 1 10.438600 13.374800 1.580720 0.00177061 0.00649631 0.00432842 1.00794
6839 1 14.251200 13.425200 1.807050 0.0112649 0.0110384 -0.0011354 1.00794
1297 2 14.127400 11.444900 5.964250 0.00323414 0.0027835 -0.00180536 15.9994
3477 1 10.411000 11.877200 1.361260 -0.00112485 0.00690611 0.00189966 1.00794
1424 1 14.259800 15.478700 6.870510 -0.00749118 -0.000358523 -0.0171715 1.00794
1316 1 9.975590 15.515800 6.770430 -0.00404827 -0.00798189 -0.0112783 1.00794
2395 2 10.633300 15.159800 0.911181 -4.52025e-05 -0.00170713 -0.00928869 15.9994
5726 1 14.995200 8.628180 4.308060 -0.0122076 0.0107337 0.0281695 1.00794
1423 2 14.909400 16.097800 6.537360 0.00236264 -0.0031578 -0.00317919 15.9994
6838 2 14.573800 12.804200 1.154000 0.000810847 0.0034199 0.000941081 15.9994
5835 1 20.818700 8.975000 2.102700 0.0195472 0.0234122 -0.00345752 1.00794
1405 2 19.323300 9.939060 3.082370 -0.00453079 0.000910413 -0.00407951 15.9994
4665 1 15.151800 10.858200 4.527400 -0.00932236 -0.00372742 -0.00625409 1.00794
1407 1 18.625500 10.036800 3.730310 -0.00617676 -0.00258993 -0.00532372 1.00794
451 2 17.727000 9.833790 5.697660 0.00142288 0.00330314 -0.00254459 15.9994
453 1 18.330900 10.453500 6.107060 0.0129178 -0.019684 0.015297 1.00794
1531 2 18.707800 12.934600 4.363810 -0.000381707 -0.00290948 -0.0042828 15.9994
1532 1 18.264900 13.601800 4.888100 -0.00950914 -0.00702041 -0.0067634 1.00794
1533 1 19.170200 12.394000 5.004280 -0.0196396 -0.0139344 0.000312504 1.00794
4663 2 15.704500 10.220300 4.075770 0.000773995 -0.000150691 0.00105599 15.9994
4664 1 16.430900 10.062700 4.678790 -0.0118339 -0.00366689 0.0153231 1.00794
5853 1 17.463000 12.751600 3.105460 0.0260764 -0.0213421 -0.0167357 1.00794
5851 2 16.767300 12.327100 2.603450 -0.00241717 0.00479143 0.000661209 15.9994
5852 1 16.395100 11.683200 3.206070 0.000530224 0.0061357 0.00391996 1.00794
2722 2 19.867400 11.473800 6.333850 -0.000318127 0.00371358 -0.00285218 15.9994
2723 1 20.712000 11.105400 6.074720 -0.00207422 6.50797e-05 -0.00338832 1.00794
4789 2 17.593700 14.780700 6.141700 -0.000217333 -0.00315742 -0.00573196 15.9994
5961 1 19.653600 13.674400 3.257770 0.00270032 0.00312606 -0.003131 1.00794
2613 1 17.966100 13.099900 1.171750 0.00506558 0.00383214 0.00772979 1.00794
4773 1 20.757100 10.306900 4.033490 0.00820507 -0.0216695 -0.00410681 1.00794
5959 2 20.191500 14.048700 2.560020 -0.00285498 0.00645191 -0.00562749 15.9994
4791 1 16.805800 15.323700 6.166910 0.0014995 -3.66352e-05 -0.0192381 1.00794
5960 1 21.086700 13.795500 2.784980 1.07873e-05 0.0140381 -0.00848674 1.00794
1406 1 18.864600 9.857100 2.246240 -0.00293649 -0.0107421 -0.00381602 1.00794
452 1 17.386800 9.313700 6.425650 0.0013704 -0.0197064 -0.0190002 1.00794
6840 1 15.410300 12.499300 1.505430 0.00290865 0.00194448 -0.00533251 1.00794
2634 1 18.541400 16.051600 5.121140 0.00404702 0.00282483 0.0187632 1.00794
3710 1 20.060600 15.705100 2.416740 0.00295555 0.00256363 0.000667577 1.00794
3583 2 15.406900 9.789820 1.537210 -0.000901665 0.00485105 -0.00156695 15.9994
3584 1 15.331000 9.964190 2.475320 0.0115509 -0.00729125 0.0016972 1.00794
3585 1 16.338900 9.898240 1.347610 -0.00105378 -0.00778246 -0.00953597 1.00794
2612 1 19.313000 13.791000 1.181000 0.00779744 -0.0013676 -0.00146481 1.00794
1299 1 14.554400 11.541300 6.815500 0.00736456 0.0158749 -0.00536632 1.00794
4771 2 21.586600 10.504500 4.468380 0.00375616 -0.0040029 -0.00364376 15.9994
6624 1 5.576880 17.274900 1.485170 0.000192243 0.0278981 0.00108982 1.00794
6623 1 4.133380 16.910500 1.759820 0.00792362 -0.00031381 0.0043014 1.00794
1207 2 5.168330 16.420900 4.972210 0.00109661 0.00455458 -0.00375934 15.9994
1100 1 1.564450 16.311800 4.688600 0.0211905 -0.0109156 -0.0147889 1.00794
4359 1 0.952433 18.617200 3.834930 -0.00131835 0.00856177 -0.0355192 1.00794
1208 1 5.307140 17.292300 5.343220 0.0161045 -0.000919203 0.00347643 1.00794
5547 1 0.437838 22.362200 2.737600 0.0108978 -0.0166911 0.00365697 1.00794
3279 1 1.173320 17.654600 1.911270 0.00276997 0.0210037 0.000348727 1.00794
4357 2 1.686760 18.009300 3.748200 -0.00198685 0.00200325 0.00464026 15.9994
4358 1 2.427620 18.470300 4.141760 -0.00938957 0.0131629 0.00550614 1.00794
5546 1 0.336074 22.715400 4.206210 0.000579149 0.0104556 -0.00358838 1.00794
4467 1 4.456500 22.130200 4.939930 0.000822163 -0.00211119 -0.010332 1.00794
4465 2 4.889630 21.439400 5.441410 0.00167662 0.00399528 -0.00265331 15.9994
3277 2 1.137080 17.533000 0.962513 0.00181344 0.00627631 0.00226891 15.9994
4466 1 4.244710 20.733400 5.483940 0.0101014 -0.00428873 -0.0123117 1.00794
6627 1 6.206540 21.348800 3.786780 -0.00470829 0.0205036 0.00751647 1.00794
7705 2 3.384660 19.448800 6.089450 -0.00129482 0.00356676 -0.0051875 15.9994
7707 1 4.210730 19.028900 6.329330 -0.00505367 0.00377189 0.00809749 1.00794
7706 1 2.713500 18.926200 6.528460 -0.00713092 0.0131607 -0.00269565 1.00794
3278 1 1.383750 16.618000 0.828229 -0.000103864 0.00368747 0.0163554 1.00794
2418 1 5.799300 21.815800 6.591650 -0.00279907 0.00434606 0.00728539 1.00794
6625 2 6.923970 21.695300 3.256230 0.00239363 0.000397058 0.00399707 15.9994
1226 1 6.482040 21.977000 1.682990 -0.00545335 -0.0113682 -0.00486705 1.00794
5635 2 6.800130 16.910700 2.454690 0.0023972 -0.00415495 -0.00233407 15.9994
5636 1 6.960540 17.845200 2.586270 0.0205168 -0.00340954 -0.0297781 1.00794
5545 2 -0.043315 22.146400 3.536450 -0.000174918 0.00377215 0.00251937 15.9994
4375 2 3.670040 23.639800 4.294250 -0.00173093 -0.00187596 -0.000896824 15.9994
6622 2 4.700430 17.313600 1.102340 0.000339696 -6.3828e-05 -0.0020882 15.9994
145 2 0.937246 22.894200 1.011950 0.000450711 0.00453712 0.00519056 15.9994
1225 2 6.243280 22.332900 0.827088 -7.80052e-05 -0.00692147 -0.00451858 15.9994
1317 1 11.293800 16.245400 6.621960 -0.00940684 0.00514978 0.00567609 1.00794
5637 1 7.443140 16.475600 3.014590 0.00254188 -0.000259789 0.000526774 1.00794
4575 1 9.846460 16.759700 2.877340 -0.000567558 0.00117315 0.000643406 1.00794
3386 1 7.456920 20.357400 2.630430 -0.0027016 -0.00348707 -0.00491039 1.00794
6626 1 7.264580 22.431400 3.764540 0.00595065 0.00967584 -0.0118301 1.00794
3385 2 7.806220 19.487900 2.434860 0.00414861 -0.00238711 0.002429 15.9994
7814 1 9.648830 20.078300 6.325160 0.00594281 -0.00456672 0.0286664 1.00794
7813 2 9.776670 19.166100 6.064990 -0.000742145 0.00249964 0.000604799 15.9994
4573 2 10.547900 17.164200 2.366910 0.00258817 -0.00315303 0.00155271 15.9994
255 1 11.017200 19.548500 3.547430 -0.00171573 -0.00181701 -0.00664408 1.00794
3387 1 8.656810 19.466800 2.873360 -0.00495787 0.000321899 0.0202358 1.00794
253 2 10.213300 20.064700 3.607150 -0.000310719 -0.000221794 -0.00152662 15.9994
254 1 9.924370 19.954900 4.513070 -0.00861977 -0.0204253 -0.00662992 1.00794
363 1 12.021300 18.204700 5.147570 0.00162842 0.00635666 0.000981118 1.00794
1335 1 14.277300 22.250100 6.039990 -0.00121843 -0.00347582 0.00138093 1.00794
2415 1 10.292200 23.186100 2.118970 0.0114072 -0.0124195 0.0180532 1.00794
4574 1 11.170800 17.478700 3.022130 0.00218446 -0.00426333 0.00246964 1.00794
361 2 12.197900 18.290500 4.210730 -5.31351e-05 0.0052388 0.00056189 15.9994
362 1 13.032100 17.839200 4.081490 -0.0075558 -0.00762899 -0.00293025 1.00794
2413 2 10.047800 22.354500 1.712890 0.00129707 -0.00229108 0.0033917 15.9994
2414 1 10.128000 21.710900 2.416920 -0.0129805 -0.0146142 -0.00624575 1.00794
4593 1 12.524100 22.995300 4.656300 0.0035528 -0.00314169 0.00177679 1.00794
7815 1 9.173450 18.671500 6.619760 0.0117306 -0.0123281 0.00094624 1.00794
3511 2 13.929100 22.674500 1.317480 -0.00107211 0.000671967 -0.00793738 15.9994
3513 1 13.874700 22.963000 2.228550 0.00323671 0.00918896 -0.0103747 1.00794
6733 2 12.273300 22.262800 6.426980 -0.00773953 0.00156299 -0.001865 15.9994
6734 1 11.340600 22.469800 6.369060 -0.00993955 -0.000733528 0.0254045 1.00794
4485 1 8.750190 23.049500 5.067530 -0.0039678 -0.00242538 -0.0020065 1.00794
7922 1 11.079200 18.206000 6.790950 -0.000503459 -0.00371879 -0.00831046 1.00794
256 2 9.088320 21.776200 6.736870 -0.00108016 -0.000513679 0.00631126 15.9994
258 1 8.133120 21.728000 6.775710 -0.00185884 0.0171807 0.00900191 1.00794
4483 2 8.372830 23.583900 4.368820 -0.0029276 -0.00244048 -0.00257967 15.9994
4591 2 13.016300 23.399500 3.941710 -0.00168002 -0.00601783 -0.00344988 15.9994
7830 1 10.723500 18.135100 1.054940 -0.0131323 0.00059666 -0.00274805 1.00794
3603 1 15.054800 17.017700 2.064870 -0.00673925 -0.00942813 -0.00151245 1.00794
2522 1 15.056000 19.526700 1.104660 0.0184844 0.00552167 -0.00951526 1.00794
1333 2 15.193300 22.417400 6.261680 -0.00236597 0.00428346 0.000269411 15.9994
4681 2 14.449900 16.964400 4.164080 -0.00314821 -0.000298126 -0.000491589 15.9994
4682 1 14.637200 16.542100 5.002400 -0.00584035 0.020487 0.0105749 1.00794
4683 1 14.961400 17.773200 4.183230 -0.0155465 0.00781755 -0.0123029 1.00794
2523 1 15.282200 20.056100 2.504850 0.0227663 -0.00646242 -0.00567813 1.00794
3512 1 14.553200 21.948900 1.332360 -0.0246551 -0.0194117 0.000880666 1.00794
2521 2 15.153200 20.340100 1.599910 -0.000696632 0.00186112 0.000276361 15.9994
5763 1 15.949100 20.359900 4.125590 -0.000648907 -0.00318294 0.0172157 1.00794
5761 2 15.753000 19.423000 4.118820 0.00271928 -0.00375826 -0.000778021 15.9994
3709 2 20.008200 16.660700 2.403560 0.00155604 0.00245881 -0.00129935 15.9994
3711 1 19.522600 16.885400 3.197230 -0.00994066 0.0026724 -0.00838666 1.00794
5762 1 16.326100 19.053000 4.790300 0.0108147 -0.0159687 -0.0144057 1.00794
469 2 16.881100 18.665900 6.506070 0.00120731 -4.23559e-05 0.00504255 15.9994
1441 2 16.814000 21.952600 4.129410 0.000497494 -0.00285138 0.00820775 15.9994
1442 1 16.912200 22.816500 3.729130 -0.00216978 -0.00475014 0.00345982 1.00794
1443 1 16.483800 22.132100 5.009740 0.00684886 0.00134923 0.00973662 1.00794
2631 1 19.654200 19.823700 2.492020 0.00877554 0.00788079 -0.00841289 1.00794
5869 2 19.178100 20.689400 4.258020 -0.00204573 -0.00200698 0.00416678 15.9994
5870 1 19.833100 21.310400 3.939170 -0.00165905 -0.0135963 -0.0176203 1.00794
5871 1 18.363900 21.191900 4.284390 -0.00637139 -0.00694522 -0.0353862 1.00794
2632 2 18.879800 16.920100 4.903280 0.00273463 -0.00165234 -0.00109163 15.9994
2633 1 18.232000 17.526900 5.261520 0.0184832 0.00631837 0.013871 1.00794
4807 2 21.003500 23.086500 3.419960 0.00204479 -0.00024581 -0.00345506 15.9994
6950 1 20.250000 19.460000 4.830530 -0.00206729 -0.00445985 -0.00775124 1.00794
2630 1 18.946800 18.830900 1.594410 -0.0136783 0.00517751 0.0122651 1.00794
6949 2 20.805900 18.707400 5.032530 0.00409794 0.000437465 -0.00647564 15.9994
8046 1 18.769100 16.463400 0.807953 0.00288006 -0.00513233 -0.00536161 1.00794
2629 2 19.340600 19.703300 1.595710 -0.00103459 -0.000502911 -0.00385515 15.9994
6951 1 20.203500 17.963800 5.056800 0.00738385 -0.00158038 0.0132033 1.00794
1551 1 21.320400 19.942600 6.478240 0.00061673 0.00541016 -0.00129629 1.00794
3602 1 16.187000 16.803100 1.083050 0.00172101 0.000778369 0.00601329 1.00794
3601 2 15.351400 17.258300 1.187180 0.000662899 -0.000569743 0.00341851 15.9994
4809 1 21.142000 23.664000 4.170680 -0.0231996 0.00919277 -0.00606364 1.00794
8153 1 21.205400 17.340900 1.216940 -0.00582415 -0.00565081 -3.02915e-05 1.00794
7669 2 6.496190 3.360700 7.296050 -0.00123902 0.00560275 0.00541008 15.9994
7455 1 0.558445 6.060300 8.489150 0.00195495 -0.0172989 -0.0132864 1.00794
5 1 0.847056 3.916120 10.679500 -0.00214993 0.0134432 0.0234953 1.00794
3246 1 4.113220 1.894620 8.868330 0.00557796 -0.00273223 -0.000900155 1.00794
6483 1 4.794000 6.866500 7.441850 -0.000230545 0.0062386 -0.000316593 1.00794
7670 1 5.618190 3.094020 7.568480 0.00503381 -0.0269886 -0.0062739 1.00794
6481 2 4.027200 7.003780 6.885610 0.00116142 -0.000704659 -0.00395145 15.9994
112 2 5.537930 3.206070 11.121900 0.0108477 0.00104925 -0.00105666 15.9994
113 1 5.751250 4.135710 11.041200 -0.0262315 0.00957127 -0.000694382 1.00794
1084 2 2.921690 7.010550 11.291700 -0.00359298 0.000261792 -0.0120265 15.9994
1085 1 2.850260 7.963560 11.237700 0.0081399 0.00106033 -0.0134544 1.00794
2272 2 6.410630 6.059290 8.368460 -0.00501237 0.00399663 -0.000720209 15.9994
2273 1 6.451000 5.176890 7.999710 0.00124457 0.000363655 0.00865903 1.00794
2274 1 6.180080 5.924930 9.287710 0.00399096 0.0116845 0.0026633 1.00794
3244 2 4.233990 2.844140 8.876040 0.00100081 -0.00212616 -0.00384691 15.9994
5405 1 1.818750 6.040680 10.536000 -0.0119753 0.0201321 -0.0139743 1.00794
5512 2 5.488610 5.858680 10.954500 0.000710348 -0.00114479 -0.00144184 15.9994
5513 1 6.232000 6.458610 11.015300 -0.0140254 0.0167177 0.00235619 1.00794
5514 1 4.732560 6.386610 11.211300 -0.0145812 -0.0167948 -0.014331 1.00794
5404 2 1.087040 5.618870 10.085600 -0.00666426 0.00439014 -0.0078528 15.9994
2166 1 3.127080 3.865260 7.742850 -0.0121319 -0.00345001 -8.58903e-05 1.00794
2164 2 2.773240 4.460710 7.082190 -0.0103475 0.00283529 0.00461969 15.9994
5406 1 0.331293 5.782880 10.649600 -0.00194397 -0.028108 0.00794159 1.00794
114 1 4.999920 3.150940 11.911700 -0.00325146 -0.0179216 -0.0119933 1.00794
1086 1 2.867270 6.818390 12.227800 -0.00289865 0.00257822 -0.0115109 1.00794
3245 1 4.652100 3.026050 9.717670 -0.0117645 0.00396484 0.00117891 1.00794
1194 1 7.086470 7.797890 12.478200 -0.0178285 0.00145228 0.00232564 1.00794
4 2 0.536951 3.143170 11.151300 -0.00260524 -0.000144544 0.000941889 15.9994
7453 2 0.469598 6.486200 7.636540 -0.00255184 0.0015 -0.00342774 15.9994
7454 1 1.239420 6.200900 7.144380 -0.00349331 0.0149198 -0.0126776 1.00794
7671 1 7.048850 3.179080 8.056190 -0.000516827 0.00421651 0.00455422 1.00794
4434 1 7.048210 2.944180 10.343600 -0.00875218 0.00342256 -0.00867518 1.00794
3263 1 3.539610 8.519930 8.004140 -0.00693661 -0.00397928 0.00965308 1.00794
3248 1 1.000010 2.656490 12.589700 0.00751386 0.0106366 -0.000738081 1.00794
5496 1 1.695420 1.464380 10.805500 -0.0107568 -0.010638 -0.00044379 1.00794
4235 1 -0.135902 8.178520 8.491120 0.00897843 0.0044913 0.0158407 1.00794
7777 2 10.170600 4.093630 7.098040 -0.0013231 0.000593662 -0.00407289 15.9994
7778 1 9.624060 3.315230 6.990150 0.000329254 -0.00285621 0.012451 1.00794
3352 2 8.827140 1.479970 7.304890 0.00532059 -0.00657705 -0.000875872 15.9994
6590 1 7.156240 7.701570 7.517990 -0.00759474 0.00267288 -0.012636 1.00794
6591 1 8.648330 7.912860 7.373310 -0.00605683 -0.00302692 -0.00510995 1.00794
1192 2 7.239860 7.870920 11.536200 -0.0130567 0.00161503 0.00311445 15.9994
6698 1 11.028400 7.803130 7.509500 0.0110788 -0.0254987 -0.0122911 1.00794
4432 2 7.719270 3.109800 9.681450 0.000792019 -0.00430694 -0.00093429 15.9994
7779 1 11.042900 3.749630 7.290330 0.000181958 0.00648567 -0.000362268 1.00794
220 2 9.725970 4.251360 11.059300 -0.00226872 0.0032407 -0.000945532 15.9994
221 1 9.794630 5.067520 10.564000 -0.00155179 0.00336684 -0.000638428 1.00794
2380 2 9.867150 6.667020 7.678490 0.00167786 -0.00356575 0.0025294 15.9994
2381 1 9.825050 5.719260 7.551230 0.0259763 -0.00271321 -0.0118231 1.00794
2382 1 9.768570 6.786960 8.623010 -0.0150278 -0.0195926 0.00281421 1.00794
3460 2 12.344300 2.836740 7.923910 -0.00413219 0.00363288 -3.74376e-05 15.9994
3462 1 12.125200 2.660750 8.838920 -0.00820233 0.000748817 -0.00156601 1.00794
4433 1 8.508110 3.311950 10.184500 -0.00275631 -0.0130941 0.00816134 1.00794
4540 2 11.807800 2.927860 10.642100 0.00557794 0.00312571 0.000514211 15.9994
4541 1 12.489800 3.589290 10.759000 -0.00139859 0.0113111 -0.00508032 1.00794
4542 1 10.993400 3.428530 10.595500 0.00345062 -0.00357838 -0.0348617 1.00794
5620 2 9.547190 7.116970 10.277700 0.00224808 -0.000946698 -0.00275782 15.9994
5621 1 10.272500 7.705310 10.487400 0.0126989 -0.0124032 -0.00675646 1.00794
5622 1 8.781720 7.526460 10.680900 0.013387 0.00380835 0.0135597 1.00794
5730 1 13.082400 7.808630 11.251400 0.0053393 -0.00621433 0.0229087 1.00794
222 1 9.578330 4.530740 11.962900 0.00303649 0.00309448 -3.48635e-05 1.00794
3461 1 12.396900 1.971020 7.518950 0.00853934 0.00439957 -2.68914e-05 1.00794
3354 1 8.335950 1.828800 8.048720 0.0118559 0.00529622 -0.00212813 1.00794
7886 1 13.629400 3.910780 7.332310 -0.00167612 0.00301858 -3.29105e-05 1.00794
330 1 14.124100 4.529880 12.400900 -0.0113087 0.00918235 0.00303966 1.00794
5728 2 13.880700 7.311760 11.072600 0.00535862 0.00261837 -0.00159893 15.9994
1391 1 12.145000 1.281680 10.870500 0.00898478 -0.00810392 -0.0165291 1.00794
329 1 13.918900 5.528090 11.281300 0.00666155 -0.00275338 -0.010888 1.00794
2490 1 14.124200 7.131670 9.160850 -0.00451822 0.00816493 0.00614162 1.00794
2488 2 13.921700 7.293850 8.239480 -0.000898153 -0.000297415 0.00385838 15.9994
2489 1 14.139400 6.473030 7.797810 0.0254754 0.00427078 0.00836326 1.00794
328 2 13.993400 4.589640 11.454500 -0.000917883 -0.00116781 0.000955312 15.9994
7885 2 14.355600 4.521400 7.458540 3.26538e-05 0.00156404 -0.00284108 15.9994
6699 1 12.521400 7.925210 7.728250 0.00651619 0.0120124 -0.00215021 1.00794
1283 1 8.798400 2.041620 12.281000 0.0180404 -0.00361562 -0.0132957 1.00794
6589 2 7.814670 8.383130 7.383130 -0.00346023 0.00144375 0.0013103 15.9994
6697 2 11.780300 8.359320 7.305740 -0.00245334 -0.00363853 -0.002494 15.9994
1282 2 8.509180 1.173030 12.001400 0.00154641 -0.00238132 -5.8616e-05 15.9994
545 1 21.564800 5.723130 11.772900 0.00366814 -0.000171222 0.00492087 1.00794
5729 1 14.591100 7.893080 11.344100 0.00672589 0.00459534 -0.00941075 1.00794
7993 2 18.568400 4.233650 7.188850 0.00304776 -0.000235719 0.000619358 15.9994
2597 1 18.125700 6.098980 7.717650 0.00662489 -0.00180176 -0.000868903 1.00794
7995 1 19.210800 3.774390 7.729710 0.00724723 0.0117846 0.00584357 1.00794
7887 1 14.939200 4.076440 8.073060 -0.00170934 0.00318493 -1.13023e-05 1.00794
4650 1 15.135900 2.935630 11.130600 -0.00920662 -0.0105236 -0.0078658 1.00794
436 2 17.419900 4.650890 11.724100 0.00596503 0.00768818 -0.00545788 15.9994
437 1 17.504800 5.547250 11.399200 -0.00977065 0.00908104 -0.00573628 1.00794
2596 2 18.049900 6.970520 8.106120 -0.00215656 -0.00416482 0.00271399 15.9994
2598 1 18.911000 7.138270 8.489140 -0.000142039 0.00796989 -0.00714829 1.00794
3568 2 16.464600 2.815250 8.419610 -0.000276559 -0.00276516 0.00154593 15.9994