ITEM: TIMESTEP
0
ITEM: NUMBER OF ATOMS
4500
ITEM: BOX BOUNDS
0.000000 35.580109
0.000000 35.580109
0.000000 35.520826
ITEM: ATOMS id type x y z vx vy vz mass
4108 1 5.571550 4.212390 6.279430 -0.00132018 0.00162123 -0.00646817 1.008
4109 2 5.590970 4.459780 7.203900 -0.00335765 0.00687725 -0.00779383 15.9994
4110 2 6.476430 4.314690 5.984550 1.02962e-06 -0.00319366 -0.00424012 15.9994
961 1 5.501340 5.528610 2.164010 0.0197649 -0.00770326 0.0167475 1.008
962 2 5.808730 6.432340 2.093210 0.00391304 -0.0034924 0.000982854 15.9994
963 2 4.910090 5.534490 2.916750 -0.000289787 0.000621894 0.00100703 15.9994
3393 2 3.588730 5.949370 4.444720 0.00310627 -0.00380236 -0.00434312 15.9994
3391 1 4.504940 6.144210 4.641740 0.0081738 -0.0187212 -0.0129044 1.008
3392 2 4.740330 5.521150 5.329210 -0.00399786 -0.00344495 0.00519597 15.9994
4052 2 7.431670 1.210060 3.501520 0.00175939 0.00159237 0.00136939 15.9994
2189 2 3.232690 0.304738 4.106660 0.00566805 -0.00321832 0.00132652 15.9994
2224 1 4.340420 1.288440 2.916430 -0.00828939 -0.0127136 0.0119544 1.008
1463 2 1.781480 1.093980 6.030510 -0.00401049 -0.00333132 0.00343096 15.9994
1793 2 7.030690 4.796590 1.925790 -0.00792731 0.00184335 -0.00512266 15.9994
1794 2 7.743960 4.303400 0.684867 0.00390406 0.00557088 0.000114667 15.9994
1792 1 7.659910 4.141210 1.624480 0.00956232 0.01527 0.00230196 1.008
3329 2 5.573110 0.851229 6.016550 -0.00515878 0.00610923 -0.00335197 15.9994
4053 2 7.439260 2.512800 2.730350 0.00119495 -0.00105798 -0.00324541 15.9994
4117 1 1.675280 5.894800 3.885010 -0.0101309 0.00622739 0.00503675 1.008
4051 1 7.100380 2.107690 3.528640 0.00616291 0.00327196 0.00111367 1.008
2686 1 8.046350 4.418290 4.719770 0.00672744 -0.0186159 0.0346592 1.008
1559 2 0.500363 6.056360 0.383853 -0.00276072 -0.000326706 0.000281848 15.9994
4118 2 1.009570 5.219340 3.755330 0.00218621 -0.00557249 0.00269839 15.9994
2138 2 6.602830 7.040050 7.353000 -0.00141713 -0.00465409 -0.00318796 15.9994
2137 1 6.089100 7.792950 7.645330 -0.00254327 -0.00658371 -5.6883e-05 1.008
3164 2 1.316590 1.788830 3.836840 -0.00155508 -0.000533213 -0.00761484 15.9994
2688 2 7.795820 3.633580 4.232240 -0.00338138 -0.000382709 0.0104212 15.9994
2225 2 4.491320 0.574248 2.297240 -0.00443127 3.20982e-05 -0.0019013 15.9994
2139 2 5.418080 7.901840 6.971450 0.00170629 -0.00030723 -0.00333549 15.9994
1829 2 8.048520 6.255390 3.615100 0.00299251 -0.000541579 -0.00440796 15.9994
3165 2 1.911640 1.596690 2.458110 0.00652 0.0016812 -0.00451223 15.9994
2523 2 1.851600 3.796180 6.374120 0.000101533 -0.00191519 0.000317572 15.9994
2521 1 1.934140 4.703010 6.669190 -0.0024295 -0.00174791 0.000647056 1.008
2522 2 2.005150 5.212520 5.861980 0.00708379 -0.00232802 0.0010702 15.9994
4119 2 1.804470 6.274430 3.015860 -0.00246554 -0.00214764 0.0024467 15.9994
2226 2 5.206460 1.482000 3.275230 -0.00520591 0.00253951 -0.00355857 15.9994
3328 1 5.921950 1.468080 6.660000 -0.000835999 0.003042 -0.00268749 1.008
3330 2 5.734550 2.331240 6.291130 0.00233618 0.00479504 -0.000303859 15.9994
441 2 6.996760 0.099103 6.851210 0.0035214 0.00228521 -0.00181361 15.9994
90 2 5.001890 1.589940 8.093940 -0.000240256 -0.00293116 0.00194476 15.9994
440 2 8.486400 0.184219 7.107370 0.00254875 -0.00385526 0.00628209 15.9994
3559 1 5.539810 8.305840 1.838690 0.00695503 -0.00459408 -0.00232392 1.008
3561 2 6.299480 8.475110 1.281490 0.00956444 0.00120101 0.002927 15.9994
1758 2 4.459570 8.363530 0.431151 -0.000427477 0.000631888 0.00353492 15.9994
2432 2 2.132680 8.234760 8.177960 0.000484433 0.0073418 -0.00375267 15.9994
2431 1 3.079340 8.131110 8.274560 0.0001336 0.00371466 -0.00380583 1.008
4082 2 5.285340 6.445020 8.538990 0.00398431 0.000289612 -0.00681147 15.9994
898 1 1.836170 8.687970 4.639390 0.0118624 -0.00319046 -0.000648503 1.008
1095 2 3.698930 2.435600 1.562850 -0.0062472 -0.00425989 0.00328593 15.9994
1093 1 3.604370 2.768300 0.670328 -0.00525487 0.00784497 0.0076322 1.008
1094 2 2.748300 2.449240 0.384715 0.003851 -0.00550765 -0.00496299 15.9994
900 2 1.736930 7.800610 4.294450 0.00420927 -0.00107225 -0.00402658 15.9994
1828 1 8.273440 7.150110 3.359910 0.0190575 -0.00505473 -0.00619794 1.008
1830 2 8.827190 7.470700 4.071820 0.000685851 -0.00341846 0.00740296 15.9994
1823 2 8.216660 4.882410 7.887500 -0.00243251 -0.00317641 -0.00296259 15.9994
1822 1 8.036200 5.787360 7.633090 0.00502477 -0.0011657 -0.00120818 1.008
1267 1 1.745160 7.080860 1.407440 0.00613878 -0.0016542 0.00758557 1.008
3929 2 3.348850 8.822730 5.398530 -0.00162369 -0.0056878 -0.00226692 15.9994
1589 2 7.034570 8.556150 4.269570 -0.00398202 -0.00185679 -0.00390172 15.9994
1268 2 2.465800 7.487170 0.925948 -0.000662444 -0.00488916 -0.00538936 15.9994
1269 2 1.107710 7.785200 1.524820 0.0016486 -0.00436406 -0.000240115 15.9994
3761 2 1.279100 0.516930 7.921810 0.00168558 -0.00165779 0.0024521 15.9994
1462 1 1.158700 1.797960 6.211570 -0.00300775 -0.00255658 0.00409244 1.008
1685 2 2.272050 5.218800 8.437790 -0.00293256 0.0043672 -0.00148512 15.9994
89 2 3.843780 0.794644 8.658030 -0.00912398 0.00729147 -0.00170275 15.9994
1824 2 8.108230 6.284620 8.447810 0.000245505 -0.00462646 0.00136475 15.9994
3388 1 8.313280 3.244900 8.534850 0.00647688 -0.0174411 0.00571541 1.008
1464 2 0.371662 1.553190 5.724860 -0.00154206 0.00181467 -0.000556749 15.9994
3163 1 1.192670 2.029350 2.918670 0.00579746 0.0037767 -0.00752051 1.008
474 2 0.415597 2.897420 7.935840 -0.00348629 -0.00142835 0.00719478 15.9994
1607 2 4.025470 4.673640 0.418962 -0.00287039 0.00276444 0.00106201 15.9994
3760 1 1.911160 0.076344 8.489810 0.00280664 -0.0133552 -0.00784891 1.008
2687 2 8.999410 4.456630 4.639500 0.00353079 -0.00618726 0.0019759 15.9994
1754 2 11.146700 0.488426 6.805680 -0.0035795 -0.00244151 -0.00821595 15.9994
2855 2 9.725200 4.218200 1.758680 0.00719292 0.00124797 -0.00141932 15.9994
2393 2 15.233600 8.602340 6.197160 0.00508618 -0.00323748 0.00995459 15.9994
4392 2 11.558200 2.587520 2.041110 0.00184547 0.00779643 -0.00248453 15.9994
4390 1 11.964000 1.722430 2.097320 -0.00827733 0.00335213 0.00276569 1.008
262 1 12.588100 3.372200 5.898800 -0.0044018 -0.0100488 -0.00091315 1.008
1514 2 11.117700 4.336470 5.271360 0.00193168 0.00277948 0.0012472 15.9994
2526 2 12.009700 4.912570 1.122720 0.000505735 -0.000912137 0.0030596 15.9994
635 2 14.757600 3.062210 3.102500 -0.00279049 0.000213121 0.000718947 15.9994
636 2 13.375800 2.497520 2.849860 -0.00380091 0.00149888 0.00296891 15.9994
634 1 13.953700 2.799270 3.550740 -0.00848254 0.0167613 0.000321435 1.008
1513 1 10.668400 5.058240 4.831580 0.0056433 0.00390864 -0.000782797 1.008
1515 2 10.714500 5.784240 5.453690 0.00180886 0.00287553 0.000770472 15.9994
2854 1 10.648400 4.140760 1.999220 0.00566159 1.98357e-05 0.00421807 1.008
2856 2 10.749600 4.721960 2.753010 0.00268838 0.00275584 0.00255934 15.9994
263 2 13.122000 2.937700 6.563880 0.00119279 -0.00550589 -0.0023815 15.9994
3979 1 14.567000 5.314960 5.903870 -0.00525265 0.000236129 0.00880328 1.008
3980 2 15.334000 4.781380 5.695710 -0.00486308 0.00513581 -0.00248744 15.9994
3981 2 13.832300 4.702300 5.870940 -0.00452979 -0.000140606 -0.00143479 15.9994
264 2 12.938100 3.056060 5.065870 -0.00170734 -0.00432065 -0.00199973 15.9994
1529 2 9.310430 1.700330 5.655290 0.000312708 -0.00148252 0.00272694 15.9994
2729 2 8.983530 6.852560 6.290760 0.00256588 0.00233526 0.00546419 15.9994
2524 1 12.518600 5.527860 0.594826 -0.00646977 0.00440004 0.002426 1.008
1530 2 9.126440 2.115840 7.099380 -0.0100957 -0.005831 0.00272266 15.9994
2525 2 12.955500 6.089360 1.235240 -0.00163226 0.000974232 0.00220633 15.9994
2728 1 9.477500 7.493220 5.779120 0.0106181 0.00274194 0.0136708 1.008
1528 1 9.502650 1.426490 6.552110 0.004296 0.00185032 0.00292473 1.008
2500 1 10.092600 7.318990 1.083580 0.00168418 0.00915226 0.00118318 1.008
2394 2 14.725800 7.179140 6.289180 6.30541e-05 -0.00185351 0.00474436 15.9994
2501 2 9.587000 7.102030 1.866880 0.00194604 0.0020743 -0.000555482 15.9994
2502 2 11.005800 7.268200 1.365720 0.00189383 0.00393245 -0.000290451 15.9994
2392 1 14.973100 7.930900 6.827640 0.00870268 -0.0067834 0.00773906 1.008
76 1 16.715200 5.330320 4.023960 0.00903625 -0.0156834 0.00201114 1.008
3160 1 16.337900 3.398910 2.251380 -0.00680403 -0.0117819 -0.00169391 1.008
77 2 16.633900 4.991360 3.132490 -0.00298746 -0.00533456 -0.000912212 15.9994
3161 2 16.443700 3.246980 1.312250 0.00271157 -0.00452667 -0.00182068 15.9994
3162 2 16.959400 2.798610 2.663130 0.00609097 0.00214891 -0.000819855 15.9994
2428 1 14.667600 2.534590 7.551490 -0.00380872 0.00174385 0.00110223 1.008
740 2 14.862500 0.988568 6.775040 -0.00225155 0.00162688 -0.00162074 15.9994
303 2 17.382700 4.369960 8.134200 0.000721856 0.00401277 0.00131811 15.9994
2429 2 15.302200 3.210310 7.789880 0.000897278 -0.00431266 0.00586786 15.9994
2430 2 14.298900 2.246310 8.386490 -0.00211651 -0.0052344 -0.000519953 15.9994
4391 2 12.168100 1.493730 1.190530 -0.00135101 -3.68175e-06 0.00513231 15.9994
1319 2 16.106100 7.723570 2.880850 0.00221327 0.00458266 0.00145802 15.9994
1318 1 15.259500 7.632880 3.318300 0.00148615 0.00292663 -0.000203396 1.008
1320 2 15.247000 6.728500 3.631620 0.00118447 0.00183731 -0.0032217 15.9994
739 1 14.823000 0.034698 6.705790 -0.00170037 0.00206166 -0.00828618 1.008
218 2 17.008700 0.893995 3.422800 0.000486977 -0.00280367 0.00339823 15.9994
1880 2 14.659000 1.233670 3.851090 -0.00143827 -0.000267287 -0.000555268 15.9994
427 1 12.797000 7.907130 2.404060 0.00308851 0.00354778 0.00318097 1.008
429 2 13.705500 7.764680 2.669650 0.00221695 0.00158429 0.00526116 15.9994
428 2 12.848900 8.573540 1.718910 0.00641235 0.000945539 0.000830941 15.9994
464 2 11.267700 8.179600 5.408690 0.00378289 0.00301193 -0.000851325 15.9994
2730 2 9.097400 8.337830 6.020780 -0.00389401 0.00123137 -0.0037135 15.9994
465 2 12.275400 8.484190 4.320710 0.00491984 0.004509 0.000527327 15.9994
463 1 11.829400 8.877210 5.070960 -0.00776217 0.0084639 -0.00899086 1.008
507 2 15.867200 8.756030 4.394890 0.00408289 0.00195224 -0.00312902 15.9994
1753 1 11.976500 0.081393 7.054870 0.0085247 0.0157282 -0.0187115 1.008
2850 2 12.028200 8.293210 8.465130 0.00185823 0.000504535 0.00139231 15.9994
2849 2 13.458900 8.442920 7.993220 0.00125696 -0.000924102 -0.00109828 15.9994
2848 1 12.932000 8.102410 8.716180 0.00303664 0.0128432 0.00676723 1.008
806 2 16.610500 7.584220 8.050150 0.00600332 0.0030361 -0.000390891 15.9994
301 1 16.790800 4.034730 8.807660 0.015331 0.00694392 0.015747 1.008
805 1 17.415300 7.655740 8.563360 0.00711274 0.00760596 -0.00267893 1.008
825 2 12.592100 1.126620 8.832720 -0.000315507 0.000812519 -0.000704416 15.9994
2582 2 17.593900 5.047930 5.463360 -0.0025468 -0.00173703 -0.00648478 15.9994
1879 1 15.243000 0.499413 4.040940 0.0130432 0.0114056 0.000257991 1.008
1881 2 15.124200 0.333867 4.976190 0.00313705 -0.00134225 -0.00321663 15.9994
2156 2 17.663200 8.846220 1.449520 -0.0054649 0.00590487 0.00203718 15.9994
2157 2 17.160900 7.452770 1.136510 0.00203441 0.00319266 0.00175818 15.9994
2155 1 17.448400 8.008910 1.860620 0.00549616 0.00252353 0.000950396 1.008
78 2 17.293700 6.088340 3.940650 -0.00584444 -0.00440947 0.000291082 15.9994
4424 2 11.540900 0.160722 3.068130 0.00164979 -0.00169877 0.00323962 15.9994
1656 2 9.369380 0.033034 2.827370 0.00279125 0.00160921 0.00156632 15.9994
1724 2 1.668940 17.321600 8.438870 -0.00344348 -0.00038141 -0.00219205 15.9994
2940 2 0.739902 11.204400 1.725170 0.00139727 0.0028666 0.00077104 15.9994
2880 2 6.230870 9.542940 8.495580 -0.000439108 -0.000617908 -0.00228326 15.9994
1590 2 5.674970 8.972500 4.789220 -0.00193516 -0.001728 0.00154468 15.9994
3928 1 4.089370 9.127220 5.923080 -0.0110623 0.0185785 -0.00290788 1.008
3560 2 5.524830 9.039420 2.453400 0.00208436 -0.00915026 0.00305248 15.9994
1588 1 6.446850 9.308930 4.333970 0.00358734 0.00256417 0.0139988 1.008
1263 2 3.878470 13.360700 2.836250 -0.00138384 -0.000317042 -0.00398383 15.9994
1262 2 5.207020 12.950800 2.237180 -0.000230098 -0.000113789 -0.00173417 15.9994
1261 1 4.267930 12.771600 2.190130 -7.59091e-05 -0.000885046 -0.00273947 1.008
1569 2 3.680820 12.833500 0.391620 0.000439284 0.000392465 0.00198028 15.9994
3775 1 2.526110 12.793000 7.312840 0.00804275 -0.0182162 -0.0064403 1.008
3708 2 7.425830 12.508100 5.181960 0.000102495 0.00188582 0.0038874 15.9994
2355 2 4.742960 10.846800 5.940040 -0.00325479 0.00530789 -0.00337218 15.9994
2353 1 4.754690 11.794400 6.074830 -0.00094536 0.00382745 0.00712743 1.008
2354 2 3.980150 11.970400 6.608990 -0.00421331 0.000650356 0.00351137 15.9994
3706 1 6.809240 13.205700 4.959510 -0.000301174 0.00338309 0.00963083 1.008
3707 2 5.952630 12.856000 5.204870 -0.000952477 -0.00200907 -0.000353889 15.9994
2097 2 6.984650 15.775100 1.546670 0.00372956 -0.000859569 0.00265406 15.9994
3347 2 6.997780 13.534400 3.403720 0.00547633 -0.000885962 0.00185371 15.9994
3346 1 7.042660 13.792700 2.483140 0.00543227 0.00756415 0.00416817 1.008
3777 2 1.774110 12.305700 7.649350 -0.00139084 -0.0017791 -0.0036141 15.9994
3348 2 7.634280 13.155200 2.083520 -0.00225276 0.00529528 -0.00372703 15.9994
1745 2 2.951490 11.398200 2.730330 0.0079954 0.00230799 0.00443768 15.9994
2878 1 6.506240 10.459200 8.465700 -0.018159 0.00398672 -0.0265022 1.008
2879 2 7.316320 10.449800 7.955880 -0.00281221 0.00238374 -0.00220067 15.9994
3930 2 3.765940 9.116340 6.823910 -0.0066137 -0.00199799 -0.00149525 15.9994
1746 2 1.803840 11.634900 3.688840 1.39004e-05 0.00271204 -0.00511246 15.9994
1744 1 2.098520 11.050300 2.990530 0.0116223 -0.00524226 0.00638929 1.008
3776 2 3.068270 12.960100 8.083790 -0.000306511 -0.00373896 -0.00365824 15.9994
3137 2 6.604430 14.137500 6.686180 -0.0059812 8.84095e-05 -0.00487153 15.9994
3675 2 2.137880 15.231700 2.322530 -0.0032479 0.00139631 0.00513771 15.9994
3136 1 6.879560 14.288100 7.590540 -0.000466524 0.00094765 -0.00664599 1.008
3138 2 6.085620 14.154700 8.108310 0.00305917 -0.000327159 -0.00149557 15.9994
1981 1 2.962350 14.884800 3.767670 -0.0136884 0.00650397 0.00177997 1.008
1982 2 2.694370 15.019600 4.676650 0.00662623 -0.00018652 0.00885951 15.9994
3463 1 2.113240 15.277700 6.293650 0.00531757 0.00533345 0.00502802 1.008
1983 2 3.640600 15.543300 3.617280 -0.00576485 -0.0027913 -0.00359438 15.9994
3465 2 1.188200 15.491700 6.415170 0.003141 0.00119414 -0.00378905 15.9994
3464 2 2.193070 14.374700 6.600830 0.0047684 0.00289111 -0.00183972 15.9994
2853 2 5.129190 16.573900 8.784790 -0.0064997 -0.00805971 -0.00535428 15.9994
2990 2 7.652550 10.471000 4.474830 0.0010667 -0.00129573 -0.000923511 15.9994
2989 1 8.423690 11.034900 4.535570 0.0083468 -0.0110188 -0.0026168 1.008
3669 2 5.206030 11.890500 8.591780 -0.00198174 -0.00404001 -0.000196057 15.9994
3674 2 1.325760 14.889700 1.091490 0.00370908 -0.00226735 0.00148406 15.9994
2991 2 8.688170 11.178400 3.626910 -0.00294661 0.000994454 -0.00403434 15.9994
4260 2 8.768820 10.396900 1.248680 -0.00354376 0.00445152 -0.00331604 15.9994
4258 1 8.851470 11.105200 1.887120 -0.00858958 0.00876702 -0.00738217 1.008
1968 2 3.015040 16.041300 7.482900 -0.00395089 0.00247557 0.00447364 15.9994
950 2 0.456942 14.948700 8.475770 -0.00305781 0.00329389 0.000141572 15.9994
1966 1 3.408860 16.621900 8.134070 -0.022679 0.014887 0.0048614 1.008
1159 1 5.096100 16.783400 3.277720 0.00562466 -0.0183799 0.0144838 1.008
1161 2 5.880560 16.749600 2.730270 -0.00250291 0.00124977 0.00160206 15.9994
899 2 1.898260 9.242290 3.861500 0.00923418 6.81454e-05 0.00140961 15.9994
368 2 0.506473 16.695300 2.602770 -0.000567215 0.000604532 0.00209869 15.9994
3673 1 1.552950 15.617400 1.670380 0.0100581 0.00210373 -0.00643336 1.008
2095 1 7.236760 16.673700 1.759490 -0.00350003 0.000190118 0.00694573 1.008
2902 1 8.849860 10.120400 7.078870 0.00886875 -0.0131572 -0.000436275 1.008
2096 2 7.996430 16.580000 2.334260 -0.000646254 0.00364521 0.00379993 15.9994
356 2 2.622850 17.509600 1.019280 -6.94943e-05 -0.00715213 0.00369706 15.9994
1967 2 3.648540 17.407000 7.641820 -0.00316191 0.00322048 -0.00443325 15.9994
2852 2 6.407420 15.821100 8.482640 -0.00279697 -0.00419232 0.000337119 15.9994
3448 1 0.388496 11.554400 8.343210 0.00508812 0.00629125 0.000594997 1.008
462 2 0.018928 11.708700 6.193140 -0.00016872 0.000281944 -0.00125687 15.9994
1160 2 5.382530 17.218300 4.080920 0.00439982 0.00172779 0.00405677 15.9994
4266 2 1.110150 8.911210 6.758490 -7.53213e-05 -0.000115347 0.00310365 15.9994
4264 1 0.722770 8.892420 7.633600 0.00481391 -0.00257778 0.00527347 1.008
367 1 0.079111 17.412300 3.071340 -0.0184603 0.00238997 -0.0168829 1.008
4265 2 0.839225 9.782180 7.966760 -0.00238855 -0.000777979 0.0031466 15.9994
256 1 17.549400 13.863900 3.503500 0.0117937 -0.0122401 -1.96789e-05 1.008
4327 1 17.583000 17.184600 6.402430 0.00770364 0.017081 -0.0166578 1.008
3657 2 9.246530 14.481900 5.178690 0.00146485 -0.00639954 -0.00386044 15.9994
258 2 17.405900 13.515800 4.383550 0.000213094 0.000344951 0.00308646 15.9994
4259 2 9.687440 11.521400 1.676930 0.000474922 -0.00240908 0.00631574 15.9994
748 1 16.885100 14.666100 0.208762 -0.00138593 -0.00625444 -5.83767e-05 1.008
3656 2 9.696000 15.222600 3.937190 -0.00073188 -0.00386538 -0.00322606 15.9994
3655 1 9.921920 14.482300 4.500410 -0.00440504 -0.01004 -0.0097797 1.008
506 2 15.268500 10.127400 4.624840 0.00286843 0.00128376 -0.00186131 15.9994
3152 2 17.018100 16.792500 4.787230 0.00162287 -0.000631704 0.00395242 15.9994
1557 2 12.505300 16.845600 1.383510 4.29987e-05 -0.000554673 0.00184041 15.9994
505 1 15.932800 9.525460 4.960500 0.0022011 0.000805359 -0.00127599 1.008
1195 1 11.520300 11.589300 5.598350 0.00571793 0.000283365 -0.0132607 1.008
3578 2 15.365800 12.733500 7.060070 -0.00404441 0.000562755 -0.00242484 15.9994
4229 2 11.487500 14.258100 3.824390 0.00319784 -0.00625639 -0.000944517 15.9994
4228 1 12.186400 14.146400 3.179910 0.00257475 -0.00478032 -0.00193892 1.008
4230 2 11.767300 13.694900 2.447270 0.00213804 -0.00433323 -0.00202023 15.9994
965 2 13.597900 12.121500 4.082140 0.00127668 0.0022744 0.00251046 15.9994
1197 2 11.768700 10.669100 5.686200 0.00392214 0.000726488 -0.00292745 15.9994
1196 2 10.773400 11.580200 4.999760 4.14768e-05 -0.00584747 -0.00617522 15.9994
819 2 13.439900 15.675900 3.369840 -0.00119352 0.00371715 0.00370182 15.9994
966 2 14.896800 11.955400 3.322540 -0.00113905 -0.000275407 -0.00119719 15.9994
3577 1 15.595500 13.109200 6.210170 0.0055062 -0.00166614 -0.000900747 1.008
3579 2 15.168700 12.537700 5.571890 0.001692 0.00425608 -0.00373866 15.9994
818 2 14.781000 16.370800 3.472570 -0.000533814 0.00243694 0.00474046 15.9994
817 1 13.851200 16.538700 3.319010 0.00236258 0.000988863 -0.0146277 1.008
964 1 14.468400 11.729000 4.148020 -0.00598372 -0.0156856 -0.00788597 1.008
1394 2 11.720400 15.889100 8.286380 -0.00276107 -0.00127103 0.00334091 15.9994
2903 2 8.986060 10.451700 6.191220 0.000805595 -0.00141227 0.0026665 15.9994
2931 2 12.278000 13.798900 7.858040 -0.00445687 -0.00262444 -0.00395184 15.9994
2904 2 9.663120 10.326900 7.539520 0.00724762 -0.00558472 -0.000879636 15.9994
976 1 16.714900 17.067700 1.419680 0.0173378 -0.000686668 0.00774059 1.008
2929 1 12.619700 12.906000 7.905590 -0.0281373 -0.0111477 0.00661576 1.008
2930 2 12.373200 12.509900 7.069820 -0.00395533 -0.00214089 -0.00481101 15.9994
977 2 16.522400 16.815400 2.322770 0.00405172 -0.00168152 0.00468136 15.9994
978 2 16.790800 16.237300 0.949582 -0.00182447 0.000437159 0.00256751 15.9994
3073 1 11.054900 12.545800 1.062420 0.00293316 -0.00363468 0.00109056 1.008
3153 2 16.972800 15.578900 3.883350 -0.0036815 0.000786762 0.00219996 15.9994
3484 1 14.931000 15.764200 7.057880 0.0138253 -0.00329258 0.013507 1.008
3485 2 15.041000 14.927200 6.606660 -0.0066388 6.35442e-06 0.0022702 15.9994
1555 1 11.647000 16.828900 0.959944 -0.00691793 0.00701451 0.0156125 1.008
22 1 13.657200 10.165200 0.855076 0.00279649 -0.015626 -0.00963055 1.008
24 2 13.256800 10.420300 0.023944 -0.00297293 0.00138111 -0.00165129 15.9994
23 2 14.581800 10.392100 0.755633 -0.000970166 0.00178925 -0.005123 15.9994
2752 1 16.007700 12.282300 1.792090 -0.0150844 -0.00368218 -0.0111414 1.008
2754 2 16.249400 12.829200 1.044620 0.0046417 -0.00483741 -0.00566201 15.9994
2753 2 16.246700 11.394200 1.526890 0.00175541 -0.00274556 0.000760003 15.9994
3151 1 16.485500 16.369900 4.113400 0.000162932 0.00304274 0.0027462 1.008
257 2 17.161900 13.210700 2.920920 -0.00972362 -0.00459124 0.0057044 15.9994
2663 2 12.210200 16.097300 5.858110 -2.39785e-05 0.00234288 -0.00523588 15.9994
3074 2 10.679300 13.163500 0.435097 0.00646335 -0.00190505 0.000613241 15.9994
3075 2 11.782000 12.138100 0.591819 0.00148093 -0.00717663 0.00183058 15.9994
2662 1 12.002000 16.606000 6.641760 0.000994624 -0.00205254 -0.00204649 1.008
3486 2 15.622700 16.321600 6.701420 0.00332126 -0.00342782 -0.00726817 15.9994
617 2 10.389200 15.487200 0.188772 -0.00296201 -0.00324481 0.000623096 15.9994
2585 2 17.224100 13.285000 6.459630 0.000364819 -0.000766747 0.00252861 15.9994
933 2 15.278400 15.211200 8.623360 -0.00442718 0.00112438 0.000991922 15.9994
1556 2 11.569000 17.686400 0.541957 0.00273351 -0.000108455 -0.000827853 15.9994
1264 1 9.568350 16.678600 2.963880 -0.00856964 0.00879679 -0.00801922 1.008
3952 1 17.416200 10.290600 0.406219 0.00141372 0.00631405 -0.00156693 1.008
4328 2 17.592500 17.719600 7.196120 -0.00205067 0.00183387 -0.00621158 15.9994
2664 2 12.500600 17.416800 6.541000 -0.00180619 4.08466e-06 0.000190769 15.9994
1266 2 10.366000 16.721200 2.436410 -0.00665669 -0.00116599 -0.00605303 15.9994
1265 2 9.628040 17.432700 3.550510 0.0032205 0.00369258 -0.00252223 15.9994
4081 1 5.320510 5.577910 8.942870 0.00274396 -0.00359599 -0.0149316 1.008
609 2 0.358260 7.950290 14.693700 0.00420928 -0.000686741 0.00175053 15.9994
2433 2 3.247620 8.313340 9.199060 0.0002166 -0.00204423 -0.00263802 15.9994
4083 2 4.405500 5.356500 9.115960 0.00366352 0.00410533 7.39829e-05 15.9994
4072 1 0.939191 4.352510 11.896400 0.0258067 0.00989446 -0.000653964 1.008
3390 2 7.512440 2.869820 8.901180 -0.00247873 -0.00325228 0.000766279 15.9994
1612 1 6.113320 2.725450 10.434200 -0.00317067 -0.00442196 0.005315 1.008
2330 2 5.277150 6.600730 10.699400 -4.89982e-05 0.00423097 0.00227979 15.9994
2329 1 5.678120 7.103320 11.408500 0.0172234 -0.00888776 0.00190118 1.008
123 2 8.545450 7.729950 10.637500 0.00382525 -0.000827483 -0.00445593 15.9994
1684 1 2.365850 5.205130 9.390280 -0.00806065 0.00251158 -0.000949019 1.008
1686 2 2.462040 4.278160 9.608680 0.00194603 0.00290782 -0.00336228 15.9994
2331 2 5.450830 6.620520 12.203100 0.000455971 -0.000384326 0.00234995 15.9994
406 1 5.566790 2.821850 13.130300 0.0235558 0.00696952 0.0118749 1.008
407 2 5.906290 2.677440 12.247100 -0.00156819 -0.00714887 0.00449446 15.9994
408 2 5.289780 3.738090 13.134100 -0.0011738 -0.000398726 -0.00318589 15.9994
1065 2 7.233290 2.966990 13.654300 0.000272948 -0.00302684 -0.00237986 15.9994
3020 2 7.838530 7.133080 15.798800 0.00585973 0.00209119 -0.00135008 15.9994
3019 1 7.968550 7.572030 14.958200 0.000698382 0.00708822 0.000420374 1.008
3021 2 7.095190 7.872400 14.706700 -0.0027077 -0.00133661 0.00206815 15.9994
3500 2 6.937520 3.712430 15.643900 0.00175903 -0.00169509 -2.54952e-05 15.9994
3499 1 6.236900 3.971020 16.242700 -0.000603209 0.00281009 -0.00466898 1.008
2447 2 4.349380 5.385490 13.575400 0.00101232 -0.00079112 -0.0043803 15.9994
416 2 1.319290 2.965320 15.390100 -0.000576945 -0.00812563 0.000705066 15.9994
1028 2 8.645550 6.097870 14.477200 0.0033399 -0.0003336 -0.0023907 15.9994
3207 2 1.864720 6.680800 16.070200 -0.00451974 0.00118205 0.000530792 15.9994
3206 2 2.346720 5.360590 15.507500 -0.00720589 0.00202496 -0.0039292 15.9994
3147 2 5.244900 1.370610 14.470000 -0.00247237 -0.00169226 -0.00314259 15.9994
615 2 4.277110 3.903120 15.980400 -0.00386591 0.00503755 -0.00244918 15.9994
613 1 3.334060 3.922420 16.143200 -0.0036481 0.0214595 -0.00294488 1.008
3205 1 2.194910 6.274980 15.268600 0.00279467 0.00516545 0.00145356 1.008
1063 1 8.015830 2.994240 14.204900 0.00589682 -0.00926897 -0.0100213 1.008
2446 1 5.290850 5.545300 13.509700 0.00239379 -0.00587186 0.00247401 1.008
3501 2 6.497960 4.836210 16.558100 0.00527684 -0.000922866 0.000827369 15.9994
1064 2 8.502850 3.756630 13.892200 -0.00307121 0.00126577 0.00164838 15.9994
2448 2 5.431300 6.356280 13.998400 0.00215225 -0.00275422 -0.00255031 15.9994
1614 2 6.862750 2.130120 10.446800 -0.0017622 -0.00285226 -0.000606162 15.9994
735 2 1.107690 6.566900 13.732400 0.00447673 0.00863537 -0.00117293 15.9994
1613 2 5.463410 2.281660 9.889350 -0.00359898 -0.00225673 0.00398488 15.9994
4074 2 1.423300 3.587900 11.584600 -0.00124618 -0.00630193 -0.00317291 15.9994
614 2 3.254830 4.159200 17.067200 0.000401856 0.00432492 0.00182712 15.9994
929 2 3.241670 2.121880 10.121100 -0.000632831 -0.00661202 -4.95433e-05 15.9994
928 1 2.541430 2.449670 10.685400 0.00502474 0.02118 -0.00910568 1.008
3631 1 8.440120 0.193358 13.988100 0.0117837 0.00286095 0.00624681 1.008
88 1 4.505220 1.443250 8.898950 -0.00982172 0.0081483 -0.00193377 1.008
121 1 8.308640 7.025600 10.034100 -0.00012215 0.00290759 -0.00733516 1.008
122 2 7.447940 6.732520 10.333300 0.00316582 -0.00106576 -0.00162936 15.9994
3632 2 8.184870 1.106620 14.118600 -0.000778641 0.000991813 -0.00503909 15.9994
3145 1 5.124350 0.939999 15.316400 0.0159987 0.0124696 0.00683063 1.008
1225 1 5.401470 8.242770 14.021300 0.000946742 0.000383056 -0.00162569 1.008
2091 2 4.270120 8.476260 11.186500 -0.00206172 0.0031346 0.00503283 15.9994
930 2 1.749840 2.377550 10.152100 0.000359433 -0.00051134 0.00068345 15.9994
2623 1 7.485490 0.265301 10.014400 0.00893837 -0.00741769 0.00381692 1.008
261 2 0.507211 8.218110 17.050700 -0.00309222 0.00105464 0.00312015 15.9994
3389 2 8.706880 3.727130 9.262010 -0.00333843 -0.00195552 0.000813677 15.9994
733 1 0.609800 7.098910 13.111600 0.0190752 0.00596569 -0.015292 1.008
415 1 0.483715 2.715690 15.784700 -0.00346231 0.00639014 0.00379025 1.008
1227 2 4.687770 8.880280 14.000300 0.00181029 0.00128644 -0.00540733 15.9994
1226 2 5.931000 8.449820 13.251300 0.00123872 -0.00495812 -0.00290453 15.9994
4152 2 8.507610 6.100870 17.385100 -0.000988279 0.00279837 -0.00461175 15.9994
4150 1 7.555600 6.188100 17.337200 -0.000732855 0.00628309 -0.00412373 1.008
2748 2 4.535480 0.800383 17.284500 0.00222358 -0.00340877 0.00316394 15.9994
3892 1 0.488340 0.239050 16.597800 -0.00094178 0.00397096 0.0105871 1.008
472 1 0.453077 2.773720 8.884270 -0.0166614 -0.00736924 0.00697237 1.008
3843 2 0.078672 4.162050 17.014400 0.00241673 0.000377851 0.00827501 15.9994
4073 2 0.677994 4.812840 11.098900 0.00320072 -0.00242895 -0.000440799 15.9994
2628 2 2.534890 0.257247 11.877000 0.000737483 0.00248166 -0.00165806 15.9994
734 2 0.416413 6.504200 12.387000 0.00426331 -0.00753386 -0.000384988 15.9994
607 1 0.153337 8.620790 15.345400 0.00326255 0.00827684 -0.00768733 1.008
3894 2 0.601764 1.140390 16.296200 -0.00445071 0.00227753 0.00405222 15.9994
3146 2 5.670260 0.155327 15.266300 0.0044621 0.0045905 0.00287028 15.9994
3633 2 9.032290 0.214776 13.236400 0.0021192 0.000112921 -0.00148295 15.9994
677 2 17.584500 3.850390 13.048800 0.00713022 0.00195589 0.00103961 15.9994
1027 1 9.284780 5.469670 14.141000 5.26271e-05 -0.00142153 -0.00672062 1.008
3194 2 10.143900 5.733050 15.748300 0.000750333 -0.00409714 0.00412011 15.9994
724 1 10.175500 0.144453 16.675300 -0.00873845 -0.000312645 0.00534368 1.008
678 2 16.902300 5.106540 12.550300 -0.00293447 -0.00247299 0.0034523 15.9994
1029 2 9.792500 5.964660 13.498100 0.00551761 0.00152001 -0.000195591 15.9994
3828 2 8.982330 5.057210 11.102700 0.00555423 -0.000657506 -0.000393523 15.9994
3826 1 9.601260 4.468290 10.671100 -0.0193794 0.00463733 -0.0434506 1.008
583 1 13.170700 1.827600 13.350100 -0.00581584 0.0191325 0.0121582 1.008
3608 2 10.821900 7.060140 11.526200 0.000321644 -0.00270164 -0.00190504 15.9994
302 2 16.120000 4.711720 8.896160 0.000954373 -0.00593649 0.00630054 15.9994
4312 1 17.544700 1.295750 15.073700 -0.00358899 0.0213471 -0.00847463 1.008
4314 2 17.424900 0.764015 14.286900 0.00088313 0.000578283 0.00485456 15.9994
1086 2 15.178500 2.156470 10.882500 -0.00622344 0.0036722 0.00265079 15.9994
1084 1 14.990500 2.882680 11.477100 -0.00430801 0.017392 -0.0133903 1.008
3914 2 10.790700 3.386670 11.457800 -0.00242976 -0.00332072 -0.00341232 15.9994
4218 2 15.909800 6.784690 9.672650 -0.000971277 -0.00359729 -0.00394727 15.9994
4216 1 15.164400 6.186130 9.625210 -0.00442701 0.000397819 -0.000884273 1.008
4217 2 14.521400 6.645920 9.085400 -0.00497319 0.00472546 0.00337534 15.9994
3827 2 10.296300 5.043340 10.351000 0.00571442 -0.00157256 -0.000231983 15.9994
130 1 11.506700 6.221990 10.261500 -0.000805771 0.00569212 0.000563944 1.008
132 2 12.103900 5.722520 10.818400 -0.00779948 -0.00429027 -0.000785434 15.9994
1085 2 15.842400 3.288930 11.636500 0.000954858 0.00120322 0.000173334 15.9994
131 2 12.081000 6.717790 9.677870 0.00620561 -0.00216436 0.000698246 15.9994
2461 1 13.537000 5.136950 11.744900 -0.00101985 0.00510822 -0.00894135 1.008
2462 2 13.765700 4.218830 11.600000 0.00148438 0.00427623 3.2128e-05 15.9994
2463 2 14.261900 5.628640 11.358800 0.00392673 0.00308492 -0.00232959 15.9994
1952 2 12.705600 8.483800 16.595200 0.00173176 -0.0030901 0.00151182 15.9994
3829 1 14.293100 3.485620 15.235800 0.0146157 -0.0207707 0.00350261 1.008
3831 2 13.926400 3.026180 14.480400 0.000916085 -0.00298381 -0.000749482 15.9994
3830 2 14.914000 4.109220 14.859300 0.00115836 -0.00558073 0.00631186 15.9994
3915 2 12.037100 2.627770 11.054700 0.00179861 0.00141162 0.000499465 15.9994
3913 1 11.271300 2.576300 11.626700 0.00164897 -0.000174241 0.000231781 1.008
584 2 12.311200 2.111660 13.039000 -0.00564466 0.00645818 -1.26065e-05 15.9994
807 2 17.406400 8.551730 8.900030 0.000814618 0.00623348 0.000949109 15.9994
585 2 13.781200 2.129460 12.677500 -0.00481576 -0.00417313 0.00255375 15.9994
3607 1 10.528600 7.390700 12.375200 -0.0120902 -0.0123793 -0.00236109 1.008
3810 2 13.300900 4.455800 16.807600 0.00093834 0.000602936 -0.0016359 15.9994