LAMMPS data file via write_data, version 29 Sep 2021, timestep = 30000

4500 atoms
2 atom types
3000 bonds
1 bond types
1500 angles
1 angle types

-0.010429319013724125 35.569679319013716 xlo xhi
-0.010429319013724125 35.569679319013716 ylo yhi
-0.010407871398488311 35.510417871398346 zlo zhi

Masses

1 1.008
2 15.9994

Pair Coeffs # lj/cut/tip4p/long

1 0.155 3.1536
2 0 0

Bond Coeffs # harmonic

1 450 0.9572

Angle Coeffs # harmonic

1 55 104.52

Atoms # full

4108 1370 1 -1.04 5.57154543172688 4.212387504311887 6.279425799263444 1 1 0
4109 1370 2 0.52 5.590970432224822 4.459779371357098 7.203899581193218 1 1 0
4110 1370 2 0.52 6.476429375367594 4.314693512431686 5.984552319201535 1 1 0
961 321 1 -1.04 5.501339856106796 5.528605805676289 2.1640088171713896 1 0 1
962 321 2 0.52 5.808725866506727 6.432338516029626 2.093207201032879 1 0 1
963 321 2 0.52 4.910089318479321 5.534494396537991 2.9167504503051536 1 0 1
3393 1131 2 0.52 3.5887275342842164 5.949370832974562 4.444715509066713 0 0 0
3391 1131 1 -1.04 4.504942214263163 6.144213538125995 4.641740432465628 0 0 0
3392 1131 2 0.52 4.7403308148310535 5.521149465924184 5.329210583566014 0 0 0
4052 1351 2 0.52 7.431669528379235 1.2100597770880226 3.5015180186729813 0 1 0
2189 730 2 0.52 3.232686260350386 0.304738374813456 4.106664585998551 1 0 0
2224 742 1 -1.04 4.340422895150128 1.2884397660691738 2.916428126613595 0 1 0
1463 488 2 0.52 1.7814824333636086 1.0939763737741854 6.030510561860522 0 1 0
1793 598 2 0.52 7.030686495452142 4.796594060418319 1.9257912041184124 0 0 0
1794 598 2 0.52 7.743958199894663 4.303395406790534 0.6848666473948154 0 0 0
1792 598 1 -1.04 7.659907357971415 4.141214940038484 1.6244754980215432 0 0 0
3329 1110 2 0.52 5.573108967549428 0.8512287663173351 6.016546016964719 0 1 0
4053 1351 2 0.52 7.439261597851629 2.5127995025577454 2.7303456903685666 0 1 0
4117 1373 1 -1.04 1.6752826888556838 5.8948014293291475 3.88500845588377 0 0 0
4051 1351 1 -1.04 7.100380246528543 2.1076919229640736 3.5286433282713703 0 1 0
2686 896 1 -1.04 8.046348516740201 4.418294965019622 4.719772788920574 2 0 0
1559 520 2 0.52 0.5003626238410799 6.056360847950262 0.3838533185434924 0 0 1
4118 1373 2 0.52 1.0095714734568717 5.21934324361889 3.755329401872554 0 0 0
2138 713 2 0.52 6.602831670182794 7.040048965762446 7.3530037017897465 0 1 0
2137 713 1 -1.04 6.089102900932088 7.792950643560195 7.645328273479314 0 1 0
3164 1055 2 0.52 1.3165874742509707 1.788829043980045 3.8368360061526015 1 1 0
2688 896 2 0.52 7.795817264021311 3.633581796677865 4.232236969885557 2 0 0
2225 742 2 0.52 4.49132470606078 0.574247528481613 2.2972432340059354 0 1 0
2139 713 2 0.52 5.418083678241717 7.9018415695271065 6.971453055785355 0 1 0
1829 610 2 0.52 8.048523117468692 6.255386697869118 3.6151038280674586 1 -1 0
3165 1055 2 0.52 1.9116361270050959 1.5966898401816296 2.4581065841855985 1 1 0
2523 841 2 0.52 1.8516011006532551 3.796177125911572 6.374120009037398 1 0 0
2521 841 1 -1.04 1.9341369985642134 4.7030125783741505 6.66919479229246 1 0 0
2522 841 2 0.52 2.005152119277797 5.212522663093028 5.861984679496667 1 0 0
4119 1373 2 0.52 1.8044683427783315 6.274434084180746 3.015858322597866 0 0 0
2226 742 2 0.52 5.206463671255964 1.4819953031970754 3.275233739960335 0 1 0
3328 1110 1 -1.04 5.921948664851967 1.4680818901694106 6.6600014771014795 0 1 0
3330 1110 2 0.52 5.734548008092203 2.331241541612088 6.291127176062 0 1 0
441 147 2 0.52 6.996755152923475 0.09910285044204113 6.8512140405421 1 0 0
90 30 2 0.52 5.001885869228424 1.5899351432604314 8.09394318506483 1 1 0
440 147 2 0.52 8.486397272324853 0.18421938371349647 7.10737165539568 1 0 0
3559 1187 1 -1.04 5.53980801183041 8.305835728095124 1.838693113328061 1 0 0
3561 1187 2 0.52 6.299478904553248 8.475111825520047 1.2814879647604311 1 0 0
1758 586 2 0.52 4.459567984457791 8.36352898987976 0.43115108251902196 0 0 1
2432 811 2 0.52 2.132683159481231 8.234757862936883 8.177963289657171 0 0 0
2431 811 1 -1.04 3.0793390703230674 8.131105507934445 8.274558402218117 0 0 0
4082 1361 2 0.52 5.285344865803172 6.445015289606338 8.538988979775752 0 0 0
898 300 1 -1.04 1.836166055730196 8.687968024293285 4.639391095619629 0 1 0
1095 365 2 0.52 3.6989336463746953 2.4356009564792744 1.562852370769981 1 1 0
1093 365 1 -1.04 3.6043724167189497 2.76830153535914 0.6703276715828964 1 1 0
1094 365 2 0.52 2.7483020438519783 2.4492396305847954 0.3847145457970331 1 1 0
900 300 2 0.52 1.7369334440848585 7.800611814306398 4.294450977071855 0 1 0
1828 610 1 -1.04 8.273438947954359 7.150106162881875 3.359914118000167 1 -1 0
1830 610 2 0.52 8.82718988232833 7.470698173262792 4.071821770410138 1 -1 0
1823 608 2 0.52 8.21666443986581 4.882410098346143 7.887499132257406 0 0 1
1822 608 1 -1.04 8.036202457631981 5.787362683138133 7.633085822372616 0 0 1
1267 423 1 -1.04 1.7451646678341632 7.080858869495708 1.407435535467268 0 1 0
3929 1310 2 0.52 3.3488528835679507 8.822731918683923 5.398528309106722 1 0 0
1589 530 2 0.52 7.034569202154729 8.556152728899876 4.269568217703349 0 0 0
1268 423 2 0.52 2.465800974530693 7.487165362324503 0.9259480617403286 0 1 0
1269 423 2 0.52 1.1077079617306087 7.785203103358225 1.5248237293720674 0 1 0
3761 1254 2 0.52 1.2791010733286665 0.5169295681570458 7.921814653220204 1 1 0
1462 488 1 -1.04 1.1586996643737137 1.797957531714682 6.211574064295543 0 1 0
1685 562 2 0.52 2.2720496985682215 5.2188007650919115 8.437787954752425 0 1 0
89 30 2 0.52 3.8437796254332897 0.794643863445149 8.658032628425323 1 1 0
1824 608 2 0.52 8.108234699273202 6.284617798396853 8.447813105893413 0 0 1
3388 1130 1 -1.04 8.313277869377629 3.2449022215463605 8.53485078265581 0 -1 0
1464 488 2 0.52 0.37166184137938996 1.553190552566375 5.724858098772562 0 1 0
3163 1055 1 -1.04 1.1926683489601368 2.029351868411526 2.9186722618702117 1 1 0
474 158 2 0.52 0.41559729539997775 2.8974152502396224 7.935837586569826 1 0 0
1607 536 2 0.52 4.025466255975695 4.673636624506329 0.4189618157027748 0 0 1
3760 1254 1 -1.04 1.911158214957263 0.07634437804901373 8.48981139614551 1 1 0
2687 896 2 0.52 8.9994060003448 4.456628874836088 4.639499603463319 2 0 0
1754 585 2 0.52 11.146721064169094 0.48842601126132423 6.805684081022895 0 0 0
2855 952 2 0.52 9.72520083635035 4.218200385741772 1.7586841254925814 1 0 1
2393 798 2 0.52 15.233645529234987 8.602341359903603 6.197159135686581 0 0 1
4392 1464 2 0.52 11.558173966412769 2.587519970048823 2.0411137125766223 0 1 0
4390 1464 1 -1.04 11.963992162579778 1.7224276936495466 2.0973167816571774 0 1 0
262 88 1 -1.04 12.588068199595252 3.372195771745542 5.8988044642071875 0 0 0
1514 505 2 0.52 11.117747786154071 4.336472913061415 5.271361978608626 -1 0 1
2526 842 2 0.52 12.00973790442732 4.912565779033517 1.1227164568730885 1 0 1
635 212 2 0.52 14.757573084682935 3.0622102482910374 3.102497913287483 -1 0 1
636 212 2 0.52 13.37583536756212 2.4975241296789603 2.849860504515854 -1 0 1
634 212 1 -1.04 13.95372060898267 2.7992745296926667 3.5507365162610713 -1 0 1
1513 505 1 -1.04 10.668437082358468 5.058235396244304 4.831577202468788 -1 0 1
1515 505 2 0.52 10.71449375750919 5.78424294664369 5.453689458767554 -1 0 1
2854 952 1 -1.04 10.648443700443215 4.1407555214161 1.9992184201184837 1 0 1
2856 952 2 0.52 10.749624673287014 4.721957335301122 2.7530079811175354 1 0 1
263 88 2 0.52 13.122029391899506 2.937698685131378 6.563883081241913 0 0 0
3979 1327 1 -1.04 14.56703424688116 5.314960949368304 5.903867192711283 0 0 0
3980 1327 2 0.52 15.333969866491866 4.781377906799613 5.695706840925741 0 0 0
3981 1327 2 0.52 13.832325412027128 4.702302414960653 5.870938660935631 0 0 0
264 88 2 0.52 12.938075820059705 3.0560563214083785 5.065868480137987 0 0 0
1529 510 2 0.52 9.310430515714614 1.7003339933138866 5.655288241404542 1 1 0
2729 910 2 0.52 8.983531608097483 6.852557025901919 6.290763541341233 0 0 0
2524 842 1 -1.04 12.51863018106712 5.52786403910297 0.5948258034874981 1 0 1
1530 510 2 0.52 9.126442615897263 2.1158400884199993 7.099379072837498 1 1 0
2525 842 2 0.52 12.955454904466897 6.089363230375092 1.2352433697889398 1 0 1
2728 910 1 -1.04 9.47749706748841 7.493224255425586 5.779123564459852 0 0 0
1528 510 1 -1.04 9.502653679297131 1.426494965602003 6.552112796311543 1 1 0
2500 834 1 -1.04 10.092579296090928 7.318986587881859 1.0835846704438137 0 0 0
2394 798 2 0.52 14.725774242142577 7.179143054424165 6.289183756336752 0 0 1
2501 834 2 0.52 9.587001477955623 7.102031951318073 1.866881290813785 0 0 0
2502 834 2 0.52 11.00584506155019 7.268198787450707 1.3657159891014126 0 0 0
2392 798 1 -1.04 14.97308020818195 7.930899899090793 6.827638253632677 0 0 1
76 26 1 -1.04 16.71516745972221 5.330323526909869 4.0239615963637565 0 1 0
3160 1054 1 -1.04 16.337892237585457 3.3989101047084653 2.2513790670354856 0 0 0
77 26 2 0.52 16.63385217876198 4.991356532532325 3.1324903170703555 0 1 0
3161 1054 2 0.52 16.44369416875772 3.2469795236366807 1.31225453328322 0 0 0
3162 1054 2 0.52 16.959448948354414 2.7986074632753284 2.663126360877805 0 0 0
2428 810 1 -1.04 14.667566533232971 2.5345927947254188 7.551490277125288 0 0 0
740 247 2 0.52 14.862543999611738 0.9885679540513413 6.7750441342361984 0 1 1
303 101 2 0.52 17.382695069830888 4.3699567287151755 8.134197511996465 0 0 0
2429 810 2 0.52 15.302236939747255 3.2103105713837907 7.789882394031156 0 0 0
2430 810 2 0.52 14.298909032573182 2.246312443576579 8.386486041395251 0 0 0
4391 1464 2 0.52 12.168109440495993 1.4937289339316469 1.190528573661744 0 1 0
1319 440 2 0.52 16.106058710693414 7.723574866157355 2.8808507509627597 0 0 1
1318 440 1 -1.04 15.259509529354146 7.632878249000112 3.318298401785173 0 0 1
1320 440 2 0.52 15.246955060110507 6.728499397341601 3.631624299174528 0 0 1
739 247 1 -1.04 14.822962918141632 0.034697606755380646 6.705787087380733 0 1 1
218 73 2 0.52 17.00865449788124 0.893995340601157 3.4228045977780917 0 1 0
1880 627 2 0.52 14.659016718901484 1.23366720125574 3.8510888138412307 1 1 1
427 143 1 -1.04 12.796980455666857 7.907126953091419 2.4040618237874085 0 0 0
429 143 2 0.52 13.705498654228622 7.764681690793413 2.669647723509019 0 0 0
428 143 2 0.52 12.848908584196712 8.573538722960519 1.7189117216584522 0 0 0
464 155 2 0.52 11.26774230726337 8.179597523200911 5.408692546232145 0 0 0
2730 910 2 0.52 9.097400614888056 8.337830857498428 6.02078078958585 0 0 0
465 155 2 0.52 12.275420070353656 8.484191706848708 4.320711341964558 0 0 0
463 155 1 -1.04 11.82944559934278 8.87720759531108 5.070962714920785 0 0 0
507 169 2 0.52 15.867160743478964 8.756034641667531 4.39489366428834 0 0 0
1753 585 1 -1.04 11.976457215265901 0.08139289933759752 7.054870367484938 0 0 0
2850 950 2 0.52 12.028212742839683 8.293213615860605 8.465131167142788 1 0 0
2849 950 2 0.52 13.458869351533426 8.442921894930446 7.993215612242213 1 0 0
2848 950 1 -1.04 12.931983613542883 8.102414004093271 8.716180089502181 1 0 0
806 269 2 0.52 16.61046960375608 7.584224305240981 8.050148988143201 -1 1 0
301 101 1 -1.04 16.790837235917742 4.034727737884182 8.807664414035516 0 0 0
805 269 1 -1.04 17.415290407356597 7.6557395050641945 8.563355467336581 -1 1 0
825 275 2 0.52 12.592147265653848 1.1266197443848924 8.832721096299485 1 1 0
2582 861 2 0.52 17.593856610951573 5.047934723045547 5.463360541643799 0 1 0
1879 627 1 -1.04 15.243020626956158 0.4994128738349617 4.040935747028808 1 1 1
1881 627 2 0.52 15.124197831373237 0.3338668665214327 4.976193734277465 1 1 1
2156 719 2 0.52 17.663152179983996 8.846219522466363 1.449516381624473 1 0 1
2157 719 2 0.52 17.160939270405528 7.4527678889150755 1.1365148957106945 1 0 1
2155 719 1 -1.04 17.44835421722469 8.008910441082675 1.8606212069754482 1 0 1
78 26 2 0.52 17.293708149958217 6.088335255197357 3.9406505555596776 0 1 0
4424 1475 2 0.52 11.540918541750342 0.1607222806560998 3.068126791650554 1 1 0
1656 552 2 0.52 9.36938061933531 0.033033667797263855 2.8273728757051106 0 1 0
1724 575 2 0.52 1.6689430976469908 17.32163536816343 8.438873583070356 0 1 0
2940 980 2 0.52 0.7399021415225627 11.20435012888886 1.7251680946968124 0 0 0
2880 960 2 0.52 6.230873752793456 9.542938173910233 8.495578477481866 0 1 0
1590 530 2 0.52 5.6749704266758485 8.972498031580809 4.78922478740117 0 0 0
3928 1310 1 -1.04 4.0893716034268435 9.127219695155022 5.923076743017484 1 0 0
3560 1187 2 0.52 5.524831914006207 9.039419283213993 2.453398509557116 1 0 0
1588 530 1 -1.04 6.446847478759742 9.30892562400418 4.333973064150734 0 0 0
1263 421 2 0.52 3.878472865435293 13.360706533356815 2.836248118836087 0 0 0
1262 421 2 0.52 5.2070153753138655 12.950839609209453 2.2371829339740574 0 0 0
1261 421 1 -1.04 4.267930818420392 12.771569331971243 2.190127618619423 0 0 0
1569 523 2 0.52 3.680815431589102 12.833535549831392 0.3916196941776069 0 0 1
3775 1259 1 -1.04 2.5261095285632065 12.792983047701124 7.3128413061421975 0 1 0
3708 1236 2 0.52 7.425832679469619 12.508149242733191 5.181957446376508 1 -1 0
2355 785 2 0.52 4.742956366776542 10.846763267467846 5.940040917035246 1 1 0
2353 785 1 -1.04 4.754692380502435 11.794352917683124 6.074829495137074 1 1 0
2354 785 2 0.52 3.980148284743636 11.970386201762272 6.608988241785946 1 1 0
3706 1236 1 -1.04 6.809237639348366 13.20568826404687 4.959512598734166 1 -1 0
3707 1236 2 0.52 5.952626783331263 12.856049241638038 5.204874036948576 1 -1 0
2097 699 2 0.52 6.984647776913996 15.775134812157829 1.5466694223991293 1 0 1
3347 1116 2 0.52 6.997782113791075 13.53439108384831 3.40372315911167 1 0 1
3346 1116 1 -1.04 7.042656776555128 13.792738405556888 2.483139232460863 1 0 1
3777 1259 2 0.52 1.7741104386134354 12.30565080718446 7.6493476152475735 0 1 0
3348 1116 2 0.52 7.634279647862019 13.155151983175703 2.083517195854083 1 0 1
1745 582 2 0.52 2.9514865802884884 11.39816120177348 2.7303348399217664 0 0 0
2878 960 1 -1.04 6.506242048696103 10.459186702389989 8.465699125575284 0 1 0
2879 960 2 0.52 7.316324455797347 10.449813511056185 7.955884966308132 0 1 0
3930 1310 2 0.52 3.765942514556701 9.116343882371547 6.823913676745741 1 0 0
1746 582 2 0.52 1.803841044132254 11.634946883232201 3.688842772165967 0 0 0
1744 582 1 -1.04 2.0985209775189584 11.050343048748402 2.990534864745432 0 0 0
3776 1259 2 0.52 3.0682698816790315 12.960100291515003 8.083792548653276 0 1 0
3137 1046 2 0.52 6.604429582259028 14.13752909105784 6.686183836457746 -1 0 0
3675 1225 2 0.52 2.1378765892691183 15.231652439502222 2.3225264360075086 1 1 0
3136 1046 1 -1.04 6.879558687287381 14.288119062191877 7.59053911850134 -1 0 0
3138 1046 2 0.52 6.08562081599193 14.154667825085577 8.108308626909905 -1 0 0
1981 661 1 -1.04 2.962346218592513 14.884821044518944 3.7676669539265277 1 1 1
1982 661 2 0.52 2.6943650469907774 15.019589587919496 4.676652856664658 1 1 1
3463 1155 1 -1.04 2.1132352720075747 15.277737348761235 6.2936457649341575 1 -1 0
1983 661 2 0.52 3.640602154108212 15.543292971422495 3.617282621572227 1 1 1
3465 1155 2 0.52 1.1881983495514044 15.491675722593358 6.4151731457784935 1 -1 0
3464 1155 2 0.52 2.1930705201643086 14.37468944761045 6.6008308254089725 1 -1 0
2853 951 2 0.52 5.129189407304682 16.573877500093758 8.78479216236666 0 0 1
2990 997 2 0.52 7.652548506639972 10.471036543090237 4.474829295822945 1 -1 0
2989 997 1 -1.04 8.423686930916604 11.034852020779423 4.5355703669549765 1 -1 0
3669 1223 2 0.52 5.206025262159445 11.890522139002638 8.591783905919373 0 -1 0
3674 1225 2 0.52 1.3257569592369347 14.889723857036811 1.0914936408359748 1 1 0
2991 997 2 0.52 8.688165559504778 11.17844359168394 3.626909618498605 1 -1 0
4260 1420 2 0.52 8.768822086242572 10.39687030895034 1.248676734585717 0 1 0
4258 1420 1 -1.04 8.85146849368495 11.105246323647103 1.8871161076973706 0 1 0
1968 656 2 0.52 3.0150359177534845 16.041250446477456 7.482900413220129 0 0 0
950 317 2 0.52 0.45694182912535913 14.948714275025365 8.475769838233871 1 0 0
1966 656 1 -1.04 3.4088640790749767 16.621859177974937 8.134072218705455 0 0 0
1159 387 1 -1.04 5.0960965232890585 16.78344238377348 3.2777217915289674 1 -1 0
1161 387 2 0.52 5.880562369177974 16.749620092335164 2.7302720411083015 1 -1 0
899 300 2 0.52 1.8982610187747837 9.242286639906432 3.8615049034621802 0 1 0
368 123 2 0.52 0.5064725306048574 16.69533122999433 2.602771471288277 0 0 0
3673 1225 1 -1.04 1.5529485522669628 15.617394994222742 1.6703809668010656 1 1 0
2095 699 1 -1.04 7.236755643134754 16.67367751387663 1.7594944138298676 1 0 1
2902 968 1 -1.04 8.849860640667236 10.120428983208205 7.078870313536893 1 0 0
2096 699 2 0.52 7.996431313111963 16.58004871762942 2.3342625105071075 1 0 1
356 119 2 0.52 2.6228455804558446 17.509628132921037 1.0192821151106564 0 0 0
1967 656 2 0.52 3.6485395475438653 17.407015586501807 7.641815249264281 0 0 0
2852 951 2 0.52 6.407415320693169 15.821057563515868 8.482640132402793 0 0 1
3448 1150 1 -1.04 0.3884963590650895 11.554429534248323 8.343214627667239 0 0 0
462 154 2 0.52 0.018927821567624525 11.708703185114604 6.193138474422028 0 0 1
1160 387 2 0.52 5.382532119453175 17.218260091699026 4.080915448204915 1 -1 0
4266 1422 2 0.52 1.110154508608989 8.9112108311526 6.7584928614171424 0 1 0
4264 1422 1 -1.04 0.7227700618094028 8.892421320244706 7.633599760405843 0 1 0
367 123 1 -1.04 0.07911121325032044 17.41229488202562 3.0713408536586457 0 0 0
4265 1422 2 0.52 0.8392248862288318 9.782183913614269 7.966755341643363 0 1 0
256 86 1 -1.04 17.54942725079447 13.86390424009457 3.5035033054674494 -1 0 0
4327 1443 1 -1.04 17.583045388430058 17.184631533100276 6.402434678474711 0 -1 0
3657 1219 2 0.52 9.246525616563273 14.481931794880015 5.178694014754435 1 0 0
258 86 2 0.52 17.40588901041132 13.515840387373224 4.3835488542752845 -1 0 0
4259 1420 2 0.52 9.687439272852128 11.521429365756752 1.6769343486435064 0 1 0
748 250 1 -1.04 16.88508280570431 14.666070118848943 0.20876156717010438 0 0 0
3656 1219 2 0.52 9.695999359160574 15.222562601882306 3.9371890593825416 1 0 0
3655 1219 1 -1.04 9.921922325976649 14.482309739005858 4.50040868978284 1 0 0
506 169 2 0.52 15.268498546400053 10.127392475549875 4.62484247819359 0 0 0
3152 1051 2 0.52 17.018109608110816 16.79246798513657 4.7872268831922735 0 1 0
1557 519 2 0.52 12.505255921247453 16.845550752664703 1.3835094802546963 0 0 0
505 169 1 -1.04 15.932756562722385 9.525458772162851 4.960504427896413 0 0 0
1195 399 1 -1.04 11.52025399476641 11.589348582266501 5.598353043120298 0 1 1
3578 1193 2 0.52 15.365805966032417 12.733522035277018 7.06006979955973 0 0 0
4229 1410 2 0.52 11.487508966696124 14.258100081100832 3.824390381805171 0 1 0
4228 1410 1 -1.04 12.186372221380342 14.146426141009618 3.179913134451405 0 1 0
4230 1410 2 0.52 11.767296078547037 13.694943579463319 2.44726688753032 0 1 0
965 322 2 0.52 13.597867316979594 12.121453647541275 4.082142636291981 0 0 0
1197 399 2 0.52 11.76870910488049 10.669139322503634 5.686198455663451 0 1 1
1196 399 2 0.52 10.773370519017353 11.580182342165681 4.999760616092172 0 1 1
819 273 2 0.52 13.439893386825254 15.6758814060918 3.3698358961177934 0 0 0
966 322 2 0.52 14.896833409111123 11.955381273409856 3.322535994785237 0 0 0
3577 1193 1 -1.04 15.595460831411957 13.10923860391311 6.210171250990652 0 0 0
3579 1193 2 0.52 15.168657089934591 12.537689577745411 5.57189065677861 0 0 0
818 273 2 0.52 14.78095154027083 16.370794460264992 3.4725688898203133 0 0 0
817 273 1 -1.04 13.851190649137259 16.53871604586151 3.319014774247795 0 0 0
964 322 1 -1.04 14.468412300977567 11.72897009677849 4.148020805791482 0 0 0
1394 465 2 0.52 11.72035348669661 15.889132675042516 8.286382238295301 1 0 0
2903 968 2 0.52 8.986061522704182 10.451716886554594 6.1912163917696805 1 0 0
2931 977 2 0.52 12.278001425714267 13.798888873906238 7.858039567103964 0 1 0
2904 968 2 0.52 9.663122139330984 10.326930564504218 7.539516242329759 1 0 0
976 326 1 -1.04 16.714882451882026 17.067666650210935 1.4196829342195942 0 -1 0
2929 977 1 -1.04 12.619746712549723 12.906038709473 7.905585153621451 0 1 0
2930 977 2 0.52 12.373206481101594 12.509883904922365 7.069815373652739 0 1 0
977 326 2 0.52 16.52240905108498 16.815439790028513 2.322770660295051 0 -1 0
978 326 2 0.52 16.790785207549515 16.237319827736428 0.9495821300418384 0 -1 0
3073 1025 1 -1.04 11.054926793693877 12.545753657485921 1.0624164632796895 1 0 0
3153 1051 2 0.52 16.97283777263898 15.578858912710094 3.883347094716276 0 1 0
3484 1162 1 -1.04 14.931037261175492 15.764156776878213 7.057883883858489 1 -1 0
3485 1162 2 0.52 15.040975353516071 14.92717391599832 6.606657614182373 1 -1 0
1555 519 1 -1.04 11.647033390232986 16.828866306035398 0.9599441883576902 0 0 0
22 8 1 -1.04 13.657214514699016 10.165167812954909 0.8550756787236515 0 1 1
24 8 2 0.52 13.256761826306454 10.420294403649882 0.02394397611597809 0 1 1
23 8 2 0.52 14.581801309994214 10.39206476515432 0.7556328758248233 0 1 1
2752 918 1 -1.04 16.007694851210484 12.282300197835855 1.792088238122521 -1 0 1
2754 918 2 0.52 16.24941933689827 12.829197431632144 1.0446228351205207 -1 0 1
2753 918 2 0.52 16.246699935745696 11.394168687634776 1.5268886337595702 -1 0 1
3151 1051 1 -1.04 16.48551146559437 16.369948324935535 4.113395898945013 0 1 0
257 86 2 0.52 17.161947794461504 13.21068608870953 2.920924935099118 -1 0 0
2663 888 2 0.52 12.210210125159428 16.09728169499089 5.858108011174638 0 0 0
3074 1025 2 0.52 10.679255532474857 13.163470079902712 0.4350972742134612 1 0 0
3075 1025 2 0.52 11.781983761676443 12.138129141274282 0.5918186954447534 1 0 0
2662 888 1 -1.04 12.001995495077672 16.605974886196062 6.641759556851296 0 0 0
3486 1162 2 0.52 15.62269284206996 16.321634108071756 6.701424317255397 1 -1 0
617 206 2 0.52 10.389173353453693 15.487233837758993 0.18877170014319264 1 1 1
2585 862 2 0.52 17.224132182002336 13.285012647217792 6.4596320660879245 0 0 0
933 311 2 0.52 15.278392832286995 15.21116886918465 8.623355145012297 0 0 0
1556 519 2 0.52 11.568989576447608 17.68643709835416 0.5419569405957505 0 0 0
1264 422 1 -1.04 9.568349209859882 16.678637454604033 2.9638825366879606 0 0 1
3952 1318 1 -1.04 17.41618781049417 10.290574684141482 0.40621867608261497 0 0 1
4328 1443 2 0.52 17.592523781946966 17.71961361830709 7.196119860750473 0 -1 0
2664 888 2 0.52 12.50055894416408 17.416847030366817 6.540998983991728 0 0 0
1266 422 2 0.52 10.365962906474364 16.721215887147576 2.4364061788716915 0 0 1
1265 422 2 0.52 9.628040295870953 17.432653070677677 3.550507855752783 0 0 1
4081 1361 1 -1.04 5.320509969291846 5.57790913627715 8.942872842235357 0 0 0
609 203 2 0.52 0.3582603035826434 7.950292917759053 14.69370225677418 1 0 0
2433 811 2 0.52 3.247617663833543 8.3133363440572 9.199061553825583 0 0 0
4083 1361 2 0.52 4.405496039326166 5.356500646895955 9.115961342138437 0 0 0
4072 1358 1 -1.04 0.9391909918573668 4.352514722407965 11.896440587254942 0 1 0
3390 1130 2 0.52 7.512435211208708 2.8698165389412615 8.901175239335412 0 -1 0
1612 538 1 -1.04 6.113316790413397 2.7254498660002837 10.434233092220063 0 1 0
2330 777 2 0.52 5.277149593942357 6.600726617029704 10.699350926552714 0 1 0
2329 777 1 -1.04 5.678124992773597 7.103319152821867 11.4084710239256 0 1 0
123 41 2 0.52 8.545450345685731 7.729947676117771 10.637475740861428 1 1 0
1684 562 1 -1.04 2.3658495338934085 5.205133905944781 9.39028291424251 0 1 0
1686 562 2 0.52 2.4620357289220416 4.278159474006131 9.608682681682701 0 1 0
2331 777 2 0.52 5.450832376963643 6.6205207222195925 12.203125403015182 0 1 0
406 136 1 -1.04 5.566793824018436 2.8218531452493933 13.130298558188915 0 1 0
407 136 2 0.52 5.906294238618999 2.6774350949361954 12.247057517911811 0 1 0
408 136 2 0.52 5.289783497087836 3.738086048231084 13.134091481539809 0 1 0
1065 355 2 0.52 7.2332857192428515 2.966993757210759 13.654315796401713 0 0 0
3020 1007 2 0.52 7.83852957777738 7.133083745950732 15.798804228806555 0 0 0
3019 1007 1 -1.04 7.968549110129004 7.57203309287714 14.958179323132244 0 0 0
3021 1007 2 0.52 7.095190419949813 7.872400195584859 14.706671784677708 0 0 0
3500 1167 2 0.52 6.937519904890413 3.7124335474617602 15.643916764993056 1 0 0
3499 1167 1 -1.04 6.236900565885609 3.9710247359258126 16.24266126731539 1 0 0
2447 816 2 0.52 4.349375215240807 5.385494027005953 13.575410897170334 1 0 0
416 139 2 0.52 1.3192861702640966 2.9653166954353205 15.390059771819665 0 0 0
1028 343 2 0.52 8.64555161553634 6.097867659681394 14.477170079641452 0 1 0
3207 1069 2 0.52 1.864720268762424 6.680796046194748 16.070211640667516 0 1 0
3206 1069 2 0.52 2.346722596692988 5.360588344539208 15.507521164351125 0 1 0
3147 1049 2 0.52 5.244895191313623 1.3706088370634908 14.470037961406065 1 1 0
615 205 2 0.52 4.277113910899036 3.903120594025048 15.980376733142558 0 1 0
613 205 1 -1.04 3.3340561946269256 3.9224187461456097 16.143169746212415 0 1 0
3205 1069 1 -1.04 2.1949050479971617 6.274982485093035 15.268634941163562 0 1 0
1063 355 1 -1.04 8.015826251984222 2.9942424299210466 14.204878839524278 0 0 0
2446 816 1 -1.04 5.290850786159406 5.545299169461427 13.509700123257034 1 0 0
3501 1167 2 0.52 6.497962887882284 4.836213617312874 16.558139481393496 1 0 0
1064 355 2 0.52 8.502851220334302 3.756634184750187 13.892153189197755 0 0 0
2448 816 2 0.52 5.431300571189219 6.356275768587322 13.9983949703296 1 0 0
1614 538 2 0.52 6.862750487732142 2.1301157668783515 10.446814179050468 0 1 0
735 245 2 0.52 1.107692988888234 6.566897750225958 13.732361720732545 0 0 0
1613 538 2 0.52 5.463405237190446 2.281656959455807 9.889352674983277 0 1 0
4074 1358 2 0.52 1.4233031723972212 3.587901656727722 11.584616764489573 0 1 0
614 205 2 0.52 3.254829188450062 4.159203195405118 17.067230375219584 0 1 0
929 310 2 0.52 3.241673113995138 2.121877673820554 10.121060171761068 0 0 0
928 310 1 -1.04 2.541434232636813 2.4496724077787815 10.685372108036827 0 0 0
3631 1211 1 -1.04 8.440124388966872 0.19335779872930417 13.988102556170828 1 1 0
88 30 1 -1.04 4.505216768504881 1.4432513736538226 8.898949716790172 1 1 0
121 41 1 -1.04 8.308639642297566 7.025602062381119 10.034110356396308 1 1 0
122 41 2 0.52 7.447939491865798 6.732521513942133 10.333327473509343 1 1 0
3632 1211 2 0.52 8.184873842570871 1.1066160526063242 14.118633626380337 1 1 0
3145 1049 1 -1.04 5.12434796398529 0.9399990908604263 15.316368542478486 1 1 0
1225 409 1 -1.04 5.401472788178101 8.242772668388504 14.021344253627591 1 0 0
2091 697 2 0.52 4.270123504464895 8.47626190985615 11.186453781744227 1 0 0
930 310 2 0.52 1.749839565642026 2.377545487048893 10.152073476413385 0 0 0
2623 875 1 -1.04 7.485490685894703 0.2653007295955435 10.014387861245488 0 0 0
261 87 2 0.52 0.507211226407415 8.218105757320519 17.05067588229961 1 1 0
3389 1130 2 0.52 8.706884282862712 3.727128124257889 9.262012394690894 0 -1 0
733 245 1 -1.04 0.6098004292908381 7.098909029325912 13.111637274614958 0 0 0
415 139 1 -1.04 0.48371545627006785 2.715693437649879 15.784700939322617 0 0 0
1227 409 2 0.52 4.687767447522117 8.880277995324722 14.00028517370768 1 0 0
1226 409 2 0.52 5.931001647352129 8.44982268560183 13.25130443798569 1 0 0
4152 1384 2 0.52 8.507609998259401 6.100874295272204 17.38506155323417 1 0 0
4150 1384 1 -1.04 7.555596896873628 6.188102783138856 17.337164938590327 1 0 0
2748 916 2 0.52 4.535482866862953 0.800382655164525 17.284507770839316 0 2 0
3892 1298 1 -1.04 0.4883400261045085 0.23905013636645162 16.597770711126664 1 1 0
472 158 1 -1.04 0.4530765278009744 2.7737244378369224 8.884271943848068 1 0 0
3843 1281 2 0.52 0.07867184945313654 4.162047975276782 17.014409725157844 1 0 0
4073 1358 2 0.52 0.6779939568652585 4.8128356308648845 11.098873906563773 0 1 0
2628 876 2 0.52 2.534892630928362 0.2572470302462175 11.876950444082933 0 0 0
734 245 2 0.52 0.4164127097438886 6.50419781542961 12.386963829541651 0 0 0
607 203 1 -1.04 0.15333722742988032 8.620790826876988 15.345370060742251 1 0 0
3894 1298 2 0.52 0.6017639880155792 1.140388423536396 16.296181359613804 1 1 0
3146 1049 2 0.52 5.670256077599427 0.15532683276555448 15.266312385349218 1 1 0
3633 1211 2 0.52 9.032289993510105 0.21477590537988725 13.236362573528258 1 1 0
677 226 2 0.52 17.5845361629534 3.850391629177057 13.048802714498038 0 1 0
1027 343 1 -1.04 9.28478471590943 5.469668244582934 14.141047515303145 0 1 0
3194 1065 2 0.52 10.143915253968377 5.733046671085823 15.748273194104305 0 0 0
724 242 1 -1.04 10.175453930482325 0.1444532400098974 16.675288697367574 1 2 0
678 226 2 0.52 16.902306694742517 5.106538009578787 12.550250394789682 0 1 0
1029 343 2 0.52 9.792497922990856 5.964663222703304 13.498055205091966 0 1 0
3828 1276 2 0.52 8.982333640713748 5.057206692013555 11.102742509852066 0 1 0
3826 1276 1 -1.04 9.601260259846395 4.468292958499323 10.671068680893953 0 1 0
583 195 1 -1.04 13.170689000382938 1.827601006525325 13.350120037089647 0 0 0
3608 1203 2 0.52 10.821893480677447 7.060137861890344 11.526165463877382 1 0 0
302 101 2 0.52 16.119954646480032 4.7117193959536 8.896155577966002 0 0 0
4312 1438 1 -1.04 17.544712536966568 1.2957514282055909 15.073745305175608 0 1 0
4314 1438 2 0.52 17.424893739843224 0.7640149838159327 14.286896114057157 0 1 0
1086 362 2 0.52 15.17847387014875 2.156472236056586 10.882502249424874 0 1 0
1084 362 1 -1.04 14.990529793667138 2.8826763006462466 11.477091620914921 0 1 0
3914 1305 2 0.52 10.790720858722915 3.386668322045144 11.457769436733908 1 1 0
4218 1406 2 0.52 15.909830464829763 6.784688715011372 9.67264941065858 1 1 0
4216 1406 1 -1.04 15.164374308477893 6.186126937027874 9.625207268060171 1 1 0
4217 1406 2 0.52 14.521388798809022 6.645915003904587 9.085395812166876 1 1 0
3827 1276 2 0.52 10.296301450848496 5.04333545249891 10.350950401339167 0 1 0
130 44 1 -1.04 11.50668078238875 6.2219926324710135 10.261498107026624 -1 1 0
132 44 2 0.52 12.103850887561366 5.722522211613803 10.818408336935223 -1 1 0
1085 362 2 0.52 15.842448845618549 3.2889304381289715 11.636538617438456 0 1 0
131 44 2 0.52 12.080964879819852 6.71778598247516 9.677872739578113 -1 1 0
2461 821 1 -1.04 13.537024792238213 5.136947793943721 11.744932273938415 -1 0 0
2462 821 2 0.52 13.765704021140618 4.218834532817895 11.599998875394455 -1 0 0
2463 821 2 0.52 14.261858406372363 5.628642138058205 11.358817337958138 -1 0 0