ITEM: TIMESTEP
0
ITEM: NUMBER OF ATOMS
250
ITEM: BOX BOUNDS
0.000000 14.423926
0.000000 14.440557
0.000000 14.413715
ITEM: ATOMS id type x y z vx vy vz mass
2 1 1.375610 1.479100 1.427090 0.322432 -0.879931 1.31318 55.845
63 1 2.840580 2.825270 2.869950 -2.11123 1.26698 -0.450728 55.845
61 1 -0.000546 2.922130 2.912760 -0.114723 -1.01388 -1.03508 55.845
53 1 2.901320 0.070606 2.885860 0.820753 -1.0896 -0.61222 55.845
13 1 2.888730 2.876140 0.005826 -1.64035 -2.06709 1.14739 55.845
51 1 0.019242 -0.001791 2.857090 -0.333359 0.204927 2.6974 55.845
4 1 4.339740 1.455300 1.480130 -2.90186 -0.766432 0.943978 55.845
65 1 5.790320 2.895100 2.957420 -1.48207 -2.3462 -3.13233 55.845
15 1 5.784060 2.865490 0.037410 -0.291335 -0.798369 -0.322002 55.845
5 1 5.695880 0.019500 0.047700 -1.64086 -0.055164 -1.11658 55.845
6 1 7.227140 1.442970 1.439740 0.965231 -0.121441 1.59228 55.845
8 1 10.047600 1.511320 1.427500 -0.788797 0.193419 1.3399 55.845
67 1 8.675830 2.969100 2.958240 1.82444 0.703118 -0.491235 55.845
7 1 8.670040 0.022814 0.039019 2.14777 2.44037 1.30191 55.845
10 1 12.985900 1.441850 1.436090 -1.35546 0.542653 -3.24876 55.845
69 1 11.508000 2.919860 2.771350 0.909374 -1.11999 -1.28579 55.845
59 1 11.475400 0.030819 2.864550 0.752067 0.363227 -1.85828 55.845
9 1 11.535500 0.060546 0.069490 -0.0134217 -1.12214 -2.336 55.845
12 1 1.436510 4.335360 1.443510 -0.844642 -0.66549 0.465384 55.845
73 1 2.870840 5.813980 2.824570 1.14049 0.291368 -0.00674697 55.845
71 1 0.069541 5.744130 2.903070 -1.11079 -1.93343 -1.48942 55.845
21 1 0.024745 5.737450 0.011454 -0.316573 1.40198 1.87372 55.845
14 1 4.270850 4.384260 1.455890 0.676533 0.787337 0.440086 55.845
75 1 5.767110 5.725220 2.900270 -0.167368 -1.35779 -1.95789 55.845
16 1 7.170920 4.362730 1.436800 2.07249 -0.57044 1.1938 55.845
25 1 5.832810 5.877710 0.026442 1.7476 -0.217828 -0.793948 55.845
18 1 10.050800 4.365450 1.417600 -1.10911 -1.70581 -1.14616 55.845
77 1 8.661190 5.783370 2.931450 -2.12068 -1.15081 0.214796 55.845
28 1 10.103500 7.196750 1.420750 1.19898 -0.0676664 -1.01472 55.845
20 1 12.989400 4.327000 1.427180 -2.66714 0.619983 0.661928 55.845
79 1 11.482300 5.783690 2.855930 -1.11767 1.13736 -0.999454 55.845
30 1 12.923200 7.196750 1.451300 0.324196 0.208634 -0.438597 55.845
29 1 11.568700 5.740620 0.007792 -1.18122 -2.42841 -0.575642 55.845
22 1 1.426610 7.210750 1.439250 0.749079 0.791036 2.24445 55.845
32 1 1.428910 10.083000 1.470200 -0.163027 0.481054 0.0356073 55.845
83 1 2.844950 8.661750 2.884340 1.1806 0.406419 -1.56523 55.845
24 1 4.316630 7.222500 1.439070 0.674392 2.6904 0.239051 55.845
34 1 4.352940 10.055600 1.428020 2.50919 0.355047 -2.42445 55.845
85 1 5.783620 8.678840 2.843450 0.207437 1.10911 0.0545638 55.845
35 1 5.823530 8.681550 0.014708 -1.33217 1.69206 -1.04145 55.845
26 1 7.252000 7.210380 1.478040 -2.15402 -0.39207 1.6816 55.845
36 1 7.233560 10.100400 1.491790 -2.10273 -0.570675 -2.21167 55.845
38 1 10.134400 10.046100 1.486050 -0.77271 -1.8809 0.835046 55.845
87 1 8.672910 8.602320 2.866080 1.32518 0.982669 0.524526 55.845
37 1 8.666000 8.599690 0.026025 -0.114975 -0.917436 0.860749 55.845
81 1 14.369000 8.681450 2.851760 0.366852 -0.842251 -2.10828 55.845
40 1 12.921800 10.117600 1.389390 0.915318 -1.26653 1.06752 55.845
89 1 11.546400 8.654740 2.904840 0.28054 2.41758 -1.06454 55.845
31 1 14.366900 8.627480 0.082553 1.15684 -0.277732 -0.193613 55.845
42 1 1.464370 13.041700 1.495630 -1.21177 0.367625 0.627444 55.845
93 1 2.892510 11.613900 2.851310 0.134985 1.66793 -2.28418 55.845
41 1 0.019239 11.548400 0.049015 -0.0891477 -0.729334 -1.2692 55.845
43 1 2.898840 11.499600 0.025006 -0.864852 0.815197 -0.489955 55.845
3 1 2.926790 14.399800 0.025051 1.31193 1.4831 -0.914208 55.845
55 1 5.796470 14.421900 2.865890 1.91739 0.419015 -0.424549 55.845
44 1 4.369480 12.927900 1.421700 0.275411 2.1136 -0.723816 55.845
95 1 5.836380 11.564800 2.865980 -0.049739 -0.0342615 -0.0944096 55.845
57 1 8.693930 14.401800 2.877600 2.38383 -0.839627 -0.83663 55.845
46 1 7.303140 12.996900 1.417750 0.0409902 -2.7409 0.278161 55.845
48 1 10.104100 12.966800 1.430350 0.30243 -1.05569 -0.467042 55.845
97 1 8.679070 11.511800 2.934360 -0.647142 0.775073 1.80993 55.845
47 1 8.660530 11.470300 0.053657 -1.16268 1.37728 -1.79889 55.845
91 1 14.383200 11.527100 2.937340 2.00683 1.2798 0.278062 55.845
50 1 12.946700 12.952300 1.508480 -0.829239 1.76406 2.14114 55.845
99 1 11.484200 11.570600 2.908160 1.89912 -0.457363 0.174417 55.845
52 1 1.403380 1.472070 4.387760 -0.461188 1.90246 -0.597542 55.845
113 1 2.884260 2.876880 5.745240 -0.0864268 -0.434631 0.872597 55.845
101 1 0.021039 0.007551 5.771070 -0.479102 0.635956 -1.14309 55.845
54 1 4.339180 1.419230 4.356250 0.692092 0.392152 1.75099 55.845
115 1 5.745750 2.870860 5.820650 0.88413 -0.0354587 1.7023 55.845
105 1 5.781420 -0.002842 5.742060 0.200194 0.114472 1.04474 55.845
106 1 7.179980 1.405200 7.189140 -1.09841 -0.465152 2.57202 55.845
56 1 7.249690 1.488630 4.338200 -1.09589 2.28642 -0.806451 55.845
58 1 10.102500 1.494820 4.275780 0.0209002 -0.0816416 -0.70455 55.845
117 1 8.673310 2.866150 5.760130 0.505899 -0.912311 0.260627 55.845
107 1 8.671510 0.055760 5.773790 0.608198 -1.48313 1.60216 55.845
111 1 14.384000 2.895500 5.725400 -1.25624 -0.745148 -0.712621 55.845
60 1 12.995800 1.436330 4.286360 -0.114224 -0.728363 0.544757 55.845
119 1 11.575700 2.926780 5.771430 0.137004 0.492541 0.607995 55.845
109 1 11.508700 0.060813 5.759900 1.52756 -1.27524 -0.998967 55.845
62 1 1.467160 4.310120 4.356730 0.513721 -0.367341 0.162931 55.845
123 1 2.842750 5.767210 5.730440 -2.00263 -2.03279 0.540153 55.845
112 1 1.397500 4.321160 7.203340 0.11368 0.24482 1.9822 55.845
122 1 1.435400 7.205530 7.182880 0.314184 -0.248561 1.40626 55.845
64 1 4.252890 4.379380 4.210850 -1.25196 -0.354477 -1.95693 55.845
125 1 5.655150 5.716100 5.763630 0.310197 0.179312 1.35805 55.845
66 1 7.189760 4.390020 4.368340 -1.1227 -0.534046 -0.367074 55.845
116 1 7.147290 4.384410 7.174430 -0.465664 0.433884 2.34456 55.845
126 1 7.159500 7.133450 7.162270 -0.504869 0.828212 1.80708 55.845
68 1 10.143500 4.333220 4.393450 0.252959 0.745926 -0.638897 55.845
127 1 8.680100 5.788340 5.756060 -0.444284 -0.414912 -0.0292312 55.845
78 1 10.109900 7.172310 4.338040 0.152922 1.18233 -1.10494 55.845
118 1 10.099500 4.324250 7.201960 1.82905 1.09768 1.14676 55.845
121 1 14.365400 5.765950 5.759680 0.713773 1.24748 0.820904 55.845
70 1 12.912400 4.382690 4.284140 1.35265 0.384572 1.12047 55.845
129 1 11.536400 5.751150 5.809580 -1.19871 -0.712933 -0.5418 55.845
80 1 12.992900 7.197490 4.317090 1.12245 0.871822 1.44862 55.845
72 1 1.459620 7.226010 4.296150 0.842117 -0.978539 -1.9159 55.845
82 1 1.405790 10.105100 4.315500 -0.117985 -2.85663 0.778041 55.845
133 1 2.905800 8.684000 5.730640 1.06303 -0.310537 1.27539 55.845
76 1 7.175890 7.228570 4.328280 0.607406 0.00164403 -0.489752 55.845
74 1 4.326440 7.222590 4.283030 1.17052 -0.00244335 1.5365 55.845
84 1 4.315340 10.113400 4.326300 -0.131563 -1.01748 0.599001 55.845
135 1 5.775820 8.690140 5.754940 -1.36532 0.656619 -0.00119498 55.845
86 1 7.190160 10.065000 4.372690 0.0677605 0.44088 0.167186 55.845
124 1 4.304300 7.270810 7.167580 0.870099 0.109764 0.381151 55.845
88 1 10.121000 10.086000 4.413310 1.45686 -1.20909 1.33329 55.845
137 1 8.669980 8.658630 5.766180 -1.76366 2.33816 -0.513559 55.845
136 1 7.245840 10.167100 7.177900 -0.609662 0.814987 -0.785934 55.845
131 1 14.378500 8.673160 5.821090 0.219943 -0.606775 -0.924362 55.845
90 1 12.994100 10.061500 4.405000 0.0286519 -0.284153 0.459645 55.845
139 1 11.526000 8.597190 5.745290 0.985868 -3.40718 -0.410243 55.845
130 1 12.933300 7.234550 7.186970 -0.175383 1.50698 0.468978 55.845
103 1 2.895490 14.420400 5.795210 -0.434677 1.4716 -2.16072 55.845
92 1 1.447420 13.016000 4.330600 -0.16097 0.905993 2.48407 55.845
143 1 2.836890 11.587600 5.768640 -0.92259 0.788664 0.237434 55.845
94 1 4.296580 12.951300 4.348350 0.974534 1.01682 -0.340614 55.845
145 1 5.741430 11.567100 5.744670 -0.918378 0.280029 0.247336 55.845
144 1 4.333580 12.910300 7.197950 -0.963491 -1.64684 -0.622904 55.845
146 1 7.151240 12.972700 7.176680 3.06367 0.190749 0.334874 55.845
96 1 7.268460 13.068600 4.380490 -0.441009 -0.241499 -0.506742 55.845
98 1 10.093500 12.965200 4.337840 -1.7102 1.89647 -0.767694 55.845
147 1 8.634620 11.586200 5.780090 0.0967264 0.841907 0.961957 55.845
141 1 14.385900 11.561100 5.771340 0.618664 0.120546 -0.123807 55.845
100 1 12.891300 12.999100 4.337800 -1.10059e-05 -0.860222 0.0301132 55.845
149 1 11.570400 11.531100 5.805030 -0.433988 1.09197 1.01218 55.845
102 1 1.442880 1.458850 7.257710 1.40586 0.9651 -1.85509 55.845
152 1 1.496020 1.426570 10.094600 -1.31424 0.207994 -1.03084 55.845
163 1 2.883180 2.814120 8.679960 -0.596778 0.899071 1.78129 55.845
104 1 4.273850 1.408570 7.210190 -0.572118 -0.25216 1.2302 55.845
154 1 4.352730 1.367350 10.098100 -0.669391 -1.70287 1.36862 55.845
165 1 5.773400 2.860630 8.632220 0.655348 1.52317 0.565485 55.845
156 1 7.137040 1.408620 10.087000 -0.548134 1.52178 0.485859 55.845
108 1 10.112300 1.437080 7.227260 -0.200936 -0.778994 1.78541 55.845
158 1 10.056400 1.405490 10.097800 2.11779 -0.316642 0.497362 55.845
167 1 8.653850 2.809650 8.584500 0.72019 0.525575 0.443684 55.845
157 1 8.593090 -0.000583 8.607910 -0.524426 0.178351 0.0963247 55.845
110 1 13.004300 1.470000 7.216300 0.794389 -1.14951 1.1345 55.845
161 1 14.405300 2.892480 8.646370 1.54241 -0.664583 -2.0896 55.845
160 1 12.978600 1.477030 10.077700 -1.88665 1.16375 0.725675 55.845
169 1 11.525500 2.897440 8.657650 -1.61392 1.78387 1.46812 55.845
151 1 14.364100 0.066120 8.682620 0.507786 0.051067 0.394412 55.845
162 1 1.459110 4.342860 10.119900 -0.141191 1.85684 -0.900817 55.845
173 1 2.881680 5.786630 8.605230 0.347761 -0.832408 2.54809 55.845
114 1 4.317710 4.302340 7.238370 -0.44305 -0.24159 -1.26876 55.845
164 1 4.283270 4.303880 10.011100 1.37327 0.0110561 -0.308772 55.845
175 1 5.794980 5.792790 8.694780 0.368054 0.255706 0.540969 55.845
166 1 7.257360 4.321930 10.059100 1.19251 -0.527481 -0.211452 55.845
168 1 10.092200 4.309220 10.081200 0.147476 0.574916 -1.61142 55.845
177 1 8.652740 5.704220 8.625370 0.499406 -1.85001 -0.334275 55.845
176 1 7.217480 7.167480 10.173500 -1.39208 -2.22171 -1.36087 55.845
128 1 10.095800 7.183290 7.210560 -0.610481 -0.505848 3.03866 55.845
178 1 10.041600 7.147200 10.054500 -1.13567 -0.324954 -1.14635 55.845
120 1 13.001100 4.351560 7.247640 1.28753 2.34001 1.2177 55.845
171 1 14.402700 5.789950 8.645440 -0.780696 0.957043 -2.37995 55.845
170 1 12.973000 4.287530 10.078900 -0.315142 0.726486 0.103554 55.845
179 1 11.545700 5.744570 8.606720 1.28154 1.36738 1.41496 55.845
180 1 12.920000 7.197330 10.095100 -0.773787 0.890372 -0.103566 55.845
172 1 1.516550 7.221520 10.061300 -1.83675 1.28583 1.11339 55.845
132 1 1.468230 10.039800 7.212340 -2.18287 -0.619688 -2.79199 55.845
182 1 1.397560 10.079300 10.111100 2.50895 -0.0797122 0.529496 55.845
183 1 2.953000 8.703030 8.625350 -0.624659 0.64093 0.0762262 55.845
181 1 0.003744 8.612250 8.621760 -1.40689 -1.46234 0.419992 55.845
134 1 4.416000 10.085800 7.217240 0.470884 0.19174 2.41609 55.845
174 1 4.321030 7.223330 10.147700 -0.113518 -0.87887 1.18582 55.845
184 1 4.373090 10.077000 10.135100 0.824809 -0.336321 -1.18881 55.845
185 1 5.778400 8.602880 8.701360 -1.71862 -0.157398 -2.05855 55.845
138 1 10.122000 10.085900 7.246760 -1.27683 -0.293103 -0.836274 55.845
186 1 7.241290 10.093900 10.093600 -1.8538 1.26912 1.37404 55.845
187 1 8.633860 8.591870 8.628330 0.645987 -0.269444 0.227483 55.845
188 1 10.136400 10.094800 10.112200 0.487024 0.97338 1.30392 55.845
140 1 12.981200 10.122500 7.243360 -0.958477 1.17972 2.15532 55.845
189 1 11.554800 8.647210 8.644300 0.553717 -3.21788 -0.978484 55.845
190 1 12.951600 10.067600 10.092700 0.390995 -0.0390255 -0.531635 55.845
142 1 1.395510 12.998200 7.233570 -2.49292 1.12539 -1.26363 55.845
153 1 2.859170 14.393400 8.672700 -1.8875 -0.248285 1.01751 55.845
192 1 1.396470 12.977400 10.103300 1.66894 -0.583261 -0.460338 55.845
193 1 2.855250 11.558800 8.664170 0.820273 1.035 -1.26692 55.845
155 1 5.751350 14.421100 8.605450 -1.05799 0.914901 0.396386 55.845
194 1 4.384360 12.962500 10.121700 1.09902 -0.955681 0.242344 55.845
195 1 5.719620 11.538500 8.650990 -1.13776 0.909836 -1.09921 55.845
148 1 10.120100 12.950000 7.213500 -0.0595301 0.540287 -2.37945 55.845
196 1 7.211860 12.992600 10.063000 -0.797111 -2.27244 1.09293 55.845
197 1 8.664860 11.567000 8.656220 -0.483934 0.317976 0.180503 55.845
198 1 10.035900 13.051500 10.074300 0.157343 2.14383 -0.998318 55.845
159 1 11.537900 14.378300 8.605910 -1.46782 -2.40681 -0.652094 55.845
150 1 12.973000 12.979700 7.221260 -0.506923 0.517921 1.81918 55.845
191 1 14.408300 11.547400 8.717870 0.0836757 -1.2482 0.0746879 55.845
199 1 11.528900 11.537100 8.754880 -1.01863 -1.35044 1.0532 55.845
200 1 12.934700 13.001600 10.102900 1.4416 0.0572876 1.15882 55.845
1 1 0.017039 0.031993 14.394000 1.58772 -1.02454 0.933568 55.845
202 1 1.452020 1.442140 13.024500 -0.982125 -0.324491 3.26621 55.845
213 1 2.921470 2.829940 11.553800 0.980411 -0.931945 0.374619 55.845
201 1 0.068987 0.012362 11.498900 -0.414132 -1.8502 -1.69377 55.845
204 1 4.283660 1.384830 12.936600 -0.473968 2.81245 -1.64311 55.845
215 1 5.768230 2.842430 11.545300 0.443017 -1.44117 -0.519024 55.845
206 1 7.187860 1.416360 12.965400 1.89712 0.00159444 0.0145432 55.845
17 1 8.683980 2.928600 14.390600 -1.1242 0.041253 -0.403603 55.845
208 1 10.021600 1.481370 12.921900 -0.668679 -0.116588 0.00155014 55.845
217 1 8.631070 2.900110 11.523900 -1.3806 3.00352 -0.379567 55.845
11 1 14.392700 2.871650 14.360900 -2.45526 0.396973 -0.750405 55.845
19 1 11.568300 2.831000 14.390700 0.656381 -0.883042 0.870706 55.845
211 1 14.409900 2.860540 11.509400 -0.292787 2.63656 -1.7045 55.845
210 1 12.991000 1.426180 12.965100 1.42216 -2.96189 -1.19197 55.845
219 1 11.535500 2.884420 11.531400 0.747436 0.175522 -0.0221879 55.845
209 1 11.565800 0.006704 11.546600 0.624805 0.0106926 -0.782913 55.845
23 1 2.857930 5.741740 14.397400 -0.351312 -1.41139 -1.86709 55.845
212 1 1.411800 4.269040 12.861900 0.846475 -0.90079 -0.628622 55.845
223 1 2.889400 5.715940 11.545700 -1.3512 -0.283544 -1.33061 55.845
221 1 0.016009 5.769460 11.486600 0.0775857 0.263371 -0.425372 55.845
214 1 4.331590 4.328090 12.988400 -1.82306 0.522066 -1.6337 55.845
225 1 5.771590 5.706730 11.501900 1.0544 -0.936459 0.486219 55.845
216 1 7.144720 4.291000 12.996600 1.97326 -0.30988 0.282784 55.845
224 1 4.335280 7.162810 12.937100 -1.46932 1.63286 3.83193 55.845
27 1 8.634720 5.789360 14.389300 -1.1251 -0.916487 -0.107187 55.845
218 1 10.162900 4.335720 12.978200 2.99023 -0.883339 -1.87389 55.845
227 1 8.666580 5.702720 11.614400 0.267753 -0.932242 0.723486 55.845
228 1 10.091500 7.119730 13.019000 1.00555 0.222728 0.00590544 55.845
220 1 12.963100 4.378410 12.913600 -0.869908 -0.568347 -0.459683 55.845
229 1 11.537300 5.778310 11.495900 0.657118 -1.28604 -1.25476 55.845
230 1 13.009800 7.173540 12.961400 1.9536 -0.811244 1.94152 55.845
222 1 1.407920 7.233170 12.998900 -0.0409393 -2.04948 1.02889 55.845
33 1 2.902510 8.632210 14.388100 0.562178 -0.124064 0.492029 55.845
232 1 1.392460 10.106900 13.032700 -0.551053 1.41992 0.111935 55.845
233 1 2.827170 8.641470 11.518500 -0.667288 0.37838 -1.52885 55.845
234 1 4.349420 10.124600 12.958000 -3.50561 -1.28619 0.26958 55.845
235 1 5.786310 8.690660 11.600600 -0.279854 -0.535386 0.18629 55.845
226 1 7.229540 7.259820 13.013200 -0.9462 0.755441 -1.75419 55.845
236 1 7.291140 10.110100 12.926800 -0.19412 1.01794 0.985034 55.845
237 1 8.710470 8.607950 11.525900 0.427541 0.572589 -1.93066 55.845
238 1 10.051800 10.100200 12.948200 -0.707371 0.917254 -0.155894 55.845
39 1 11.512500 8.656290 14.366200 0.722564 -0.305541 -2.70906 55.845
231 1 14.407800 8.616470 11.485800 1.25624 -1.23309 -0.546978 55.845
239 1 11.545600 8.634540 11.591900 1.44747 0.430789 -0.932466 55.845
240 1 13.032100 10.114000 12.939100 0.48781 0.208061 -1.22517 55.845
203 1 2.908520 14.365000 11.548000 -0.181847 0.9375 0.639474 55.845
242 1 1.483550 13.011800 13.007400 0.312246 -1.94891 1.51913 55.845
243 1 2.842150 11.498200 11.457300 2.69288 1.21375 -0.440565 55.845
241 1 0.072292 11.534300 11.586800 -0.241214 -0.82346 0.337365 55.845
205 1 5.819120 14.360500 11.557900 -0.737691 -0.614654 0.0749726 55.845
45 1 5.849090 11.478900 14.407000 0.322265 -1.40199 0.449693 55.845
244 1 4.373260 12.903200 13.003800 -0.257133 -0.965577 -0.504217 55.845
245 1 5.839950 11.505700 11.479100 0.351232 -0.559038 1.50123 55.845
207 1 8.655960 14.394700 11.501700 0.13373 1.61826 -0.212628 55.845
246 1 7.212520 12.943100 12.997500 -0.720556 0.499102 -1.45708 55.845
247 1 8.683260 11.549600 11.469100 1.29354 -0.858644 1.12744 55.845
248 1 10.096800 13.019100 12.978800 0.529183 1.14594 -0.760884 55.845
49 1 11.518400 11.512000 14.403900 -0.0203608 -0.119359 -1.40533 55.845
249 1 11.570400 11.578800 11.544400 1.17482 0.924723 2.53385 55.845
250 1 13.065100 13.018700 12.975600 2.61675 1.7917 0.623131 55.845
