ITEM: TIMESTEP
0
ITEM: NUMBER OF ATOMS
8640
ITEM: BOX BOUNDS
0.000000 42.890318
0.000000 44.572893
0.000000 42.023734
ITEM: ATOMS id type x y z vx vy vz mass
2 1 2.234050 2.130150 4.350630 -0.0109303 -0.00769363 -0.0174901 1.00794
110 1 6.445980 2.696130 4.250770 -0.00292532 0.00719132 -0.00502164 1.00794
1081 2 4.167180 5.734030 5.265770 0.000597677 -0.00654489 -0.00216857 15.9994
1082 1 4.086500 6.690500 5.013110 -0.0208081 0.0175938 -0.0059204 1.00794
1083 1 3.895990 5.679670 6.211280 0.0232789 -0.0132091 0.00122113 1.00794
2163 1 2.132740 3.930490 2.447010 -0.000278877 -0.00736627 -0.00731188 1.00794
2271 1 5.910260 4.363080 2.163570 -0.00127325 0.0171772 0.0247762 1.00794
5401 2 2.109680 3.727310 4.213900 -0.00188971 -0.00249497 0.00212521 15.9994
5402 1 2.580970 4.439390 4.725550 0.00209288 0.009448 0.018146 1.00794
5509 2 5.995910 4.277550 4.063910 -0.00433553 0.00474963 0.00807006 15.9994
5510 1 6.620040 4.970690 4.417920 -0.00258939 0.00138052 -0.0152573 1.00794
5511 1 5.151170 4.444410 4.598130 -0.0110983 -0.000756348 0.0106725 1.00794
5403 1 1.239930 4.170290 4.163150 -0.0028157 0.0120248 -0.0047762 1.00794
3261 1 4.190720 8.153440 2.578410 0.00991691 -0.0234625 0.00794118 1.00794
4339 2 3.875150 8.097270 4.356180 -0.00252716 -0.000938872 0.00224297 15.9994
111 1 6.544970 1.729270 5.507600 0.0144925 0.00601352 -0.0145965 1.00794
3259 2 4.110540 8.429680 1.639250 -0.00061272 0.000129289 0.00220717 15.9994
2269 2 6.063310 4.398000 1.215780 0.00276495 -0.000495824 -0.000147536 15.9994
4341 1 3.052190 8.596170 4.399840 0.0133755 0.0164303 -0.00145431 1.00794
109 2 6.544290 1.766210 4.525550 -0.000948686 0.000682561 -0.00171378 15.9994
4340 1 4.566000 8.771810 4.562360 -0.0130404 0.00626093 -0.012125 1.00794
2161 2 2.174630 4.212860 1.491980 0.000514684 -0.00750014 0.00288192 15.9994
3260 1 3.979410 7.519640 1.286670 0.00301481 -0.0103927 -0.00432404 1.00794
4449 1 7.002970 8.835480 4.783980 0.0177121 -0.0125756 0.016947 1.00794
7669 2 6.411970 1.776770 7.157490 -0.0028097 -0.00295031 -0.00367855 15.9994
5312 1 0.738898 8.188010 4.534170 0.0026659 -0.017964 -0.0107979 1.00794
4447 2 7.775260 8.483940 4.323950 0.000569089 -0.000560675 -0.00354646 15.9994
1190 1 7.791360 7.027830 4.883150 0.000933681 0.019012 0.0142168 1.00794
1191 1 7.914960 6.108080 6.122210 0.00169594 0.0221743 0.0215362 1.00794
1189 2 7.981960 6.080340 5.141160 0.00261935 0.000691432 0.00138088 15.9994
217 2 10.230200 2.129290 4.852260 0.00480068 0.0025756 0.00346893 15.9994
218 1 10.252800 3.059040 4.574830 -0.0115409 0.00102433 -0.0233867 1.00794
219 1 10.210400 2.235630 5.814580 0.0206037 0.00154201 -0.00749372 1.00794
1297 2 11.793800 6.468240 5.044330 0.00331113 0.00423043 0.00157279 15.9994
1298 1 11.527000 7.388990 4.797940 -0.0188834 -0.00566107 -0.002201 1.00794
1299 1 11.808800 6.551240 6.077230 0.0106198 0.00114875 0.0235347 1.00794
2379 1 10.030600 4.656100 2.402530 -0.0120988 -0.0076754 -0.0120407 1.00794
2487 1 13.630200 5.152910 2.374990 0.00695822 -0.00571747 2.81569e-05 1.00794
5617 2 9.942300 4.704630 4.212830 -0.00104524 -0.00128134 0.00182446 15.9994
5618 1 10.761600 5.234770 4.522420 0.000877175 -0.0174102 0.000955058 1.00794
5619 1 9.206670 5.271650 4.574760 0.00213753 -0.00528038 0.0251535 1.00794
5725 2 13.948200 5.403480 3.901220 0.000120292 -0.00115483 0.00265703 15.9994
5727 1 13.099600 5.828780 4.256940 -0.0173268 0.0116801 0.016522 1.00794
2377 2 9.882700 4.816660 1.459460 -0.00186222 0.0070489 0.00168936 15.9994
326 1 14.174100 3.657360 4.591070 -0.0147593 0.00687408 -0.0128151 1.00794
3369 1 7.851230 8.557810 2.409030 0.00521 -0.00584861 0.00539046 1.00794
2485 2 13.551000 5.121410 1.396980 0.00389823 -0.00405373 -0.00362184 15.9994
3368 1 7.649340 7.684990 1.274150 0.00310861 -0.0157253 -0.00912052 1.00794
325 2 14.235700 2.815480 5.114310 -0.00234938 -0.00140719 0.000424728 15.9994
327 1 13.991800 3.060980 6.011970 0.00289536 -0.0192485 0.0150052 1.00794
3367 2 7.752780 8.637180 1.496980 0.00303006 -0.00170076 -0.00284899 15.9994
4555 2 11.307600 8.795670 4.158550 0.000931814 0.00233614 -0.00442845 15.9994
4538 1 13.107800 1.638810 4.412610 -0.00338466 -3.53451e-05 0.0132619 1.00794
5726 1 14.710500 5.800380 4.403360 -0.00174614 0.00170287 0.00175432 1.00794
433 2 18.502000 3.339990 4.600940 0.00380099 -0.00215217 0.00287108 15.9994
434 1 18.240300 4.170450 4.109450 -0.00596044 0.00425028 0.00919897 1.00794
435 1 18.403000 3.537720 5.567630 -0.0237422 0.0017173 0.0102959 1.00794
1405 2 15.862300 6.660650 5.213700 0.00239413 0.00226471 -0.0018288 15.9994
1406 1 15.727000 7.627720 5.048970 0.0106963 -0.0112811 0.01397 1.00794
1407 1 16.000400 6.694900 6.171310 0.0128496 0.00393983 -0.000699739 1.00794
1513 2 19.509000 7.619320 4.985570 0.00581777 -0.00379185 -0.000780875 15.9994
1515 1 19.293200 7.824790 5.924460 0.00778654 0.0216685 0.0219221 1.00794
2595 1 17.762100 5.543220 2.194440 -0.00848495 -0.0134999 -0.00374023 1.00794
3675 1 20.276900 2.073870 2.055430 -0.00690387 0.00398131 -0.000491273 1.00794
4646 1 17.247500 2.071770 4.313760 -0.001122 0.00261975 0.0162613 1.00794
4753 2 20.506300 2.254100 3.700720 -0.000644062 5.60853e-05 -0.00169189 15.9994
4755 1 19.718900 2.829760 4.010010 -0.00302202 0.00779506 0.00689228 1.00794
5833 2 17.900800 5.859930 3.727830 -0.0015198 -0.00292663 0.00637132 15.9994
5834 1 18.502700 6.484630 4.182360 -0.0232505 -0.00897252 -0.0133729 1.00794
5835 1 17.078400 6.024750 4.237480 -0.0156317 -0.00927599 0.0150299 1.00794
4754 1 21.253100 2.783870 4.105300 0.0105189 -0.00824099 -0.0115311 1.00794
1514 1 19.472800 8.481360 4.591730 0.0394419 0.00540834 0.0154175 1.00794
4647 1 15.745800 1.902300 4.576340 0.0206225 -0.00130053 -0.0145892 1.00794
2593 2 17.656300 5.658610 1.222470 -0.00278222 0.000454695 -0.00150649 15.9994
5943 1 21.004200 6.715810 4.568890 0.0114995 -0.00481393 -0.0103063 1.00794
7993 2 18.389500 3.440900 7.135660 -0.00393755 0.00619701 0.000625421 15.9994
2702 1 21.691100 5.657300 1.355760 0.018408 0.0121328 0.00446097 1.00794
2703 1 21.527800 6.149380 2.726270 0.0194618 0.00706631 0.00201828 1.00794
3584 1 15.268100 8.427670 1.455210 -0.0223606 -0.0150371 0.00173488 1.00794
2701 2 21.361300 6.436340 1.821170 0.00520395 0.00307367 0.00172809 15.9994
20 1 1.730950 10.441300 4.504910 0.0129723 0.00972139 0.00791119 1.00794
21 1 1.592910 9.551870 5.683500 0.00327621 0.00287051 -0.0126563 1.00794
127 2 5.684610 9.791120 5.308270 0.00184885 -0.00170287 -0.00233433 15.9994
128 1 5.731080 10.714900 4.933900 0.00828308 -0.00591801 0.00745188 1.00794
129 1 5.473760 10.012500 6.209750 -0.00387005 0.00762771 -0.0084756 1.00794
1099 2 3.321570 13.538400 5.095070 -0.00286781 -0.00235967 -0.00799774 15.9994
1100 1 3.203860 14.444900 4.790240 0.0179428 0.0281117 0.00266602 1.00794
1101 1 3.391180 13.672000 6.078460 -0.0103163 0.0145871 0.000618236 1.00794
2181 1 1.413540 12.177000 2.302620 -0.0223904 -0.00163999 -0.0287609 1.00794
2289 1 5.489860 12.688900 2.753560 0.00641882 0.000496716 -0.0184767 1.00794
5419 2 1.361320 12.110300 3.895600 0.00344743 0.000102526 -1.39852e-05 15.9994
5420 1 2.089140 12.600000 4.392970 0.00894166 0.009779 0.00515322 1.00794
5527 2 5.463490 12.259500 4.637140 -0.00233747 -0.000246269 0.000573262 15.9994
5528 1 6.070560 12.978000 4.937080 -0.0099943 0.00655849 0.00514341 1.00794
5529 1 4.571800 12.587000 4.785510 0.00570045 0.0128092 -0.000289491 1.00794
19 2 1.810690 9.502620 4.743590 -0.00333525 0.003203 0.00079916 15.9994
1208 1 7.228530 14.984500 4.984290 -0.00211594 -0.0111481 -0.0178544 1.00794
5421 1 0.574100 12.650700 4.259090 0.000992228 -0.0133191 0.00276594 1.00794
1209 1 7.012930 14.197000 6.229130 0.00798146 -0.00236508 0.00389849 1.00794
2287 2 5.425990 12.768400 1.786150 0.00237162 -0.000289736 0.000879 15.9994
3278 1 3.378630 15.499400 1.196540 0.00669763 -0.00818751 -0.00711279 1.00794
2179 2 1.584650 12.262200 1.315270 0.00436059 5.77563e-05 -0.00268747 15.9994
1207 2 7.009710 14.107500 5.275810 -0.00100191 -0.00312315 0.00314848 15.9994
4357 2 3.420250 16.240100 4.391220 0.00450246 0.000473291 -0.00163044 15.9994
3279 1 3.502350 16.267300 2.563540 -0.00237063 -0.0036373 -0.0189336 1.00794
2288 1 5.423400 11.793400 1.478490 0.00598624 -0.0172144 -0.0074958 1.00794
3386 1 6.984720 16.069300 1.555960 0.00405688 0.0070112 0.0120925 1.00794
6623 1 6.491090 14.000800 1.329510 -0.00887959 -0.0075392 0.0150654 1.00794
6516 1 4.091590 13.448300 1.325310 0.00823364 0.00805755 -0.0169677 1.00794
7704 1 6.647480 9.707240 1.341740 -0.0152815 0.00579931 0.00785511 1.00794
7703 1 5.109300 9.597310 1.234850 -0.00194438 0.00424714 -0.0111496 1.00794
3477 1 11.465300 8.897220 2.475900 0.00177531 0.00115926 0.0174081 1.00794
4448 1 8.345380 9.261860 4.517120 0.0164165 0.00389637 -0.00191694 1.00794
235 2 9.306800 10.479300 5.053190 -0.000851192 -0.00374407 0.00382121 15.9994
236 1 9.148430 11.432000 4.722840 -0.00253751 0.00934419 -0.00597223 1.00794
237 1 9.189800 10.674500 6.009890 -0.00565843 -0.0123905 0.0104242 1.00794
343 2 13.205600 10.516400 4.961500 -0.00021145 0.00377025 0.00164187 15.9994
344 1 13.065500 11.412700 4.608850 -0.0172927 -0.0116152 -0.00920184 1.00794
345 1 13.147100 10.664300 5.975340 0.00328476 -0.00527541 0.0126426 1.00794
1315 2 10.829600 14.571800 5.121220 0.00165135 0.00100025 0.000622187 15.9994
1316 1 11.013100 15.510600 4.893260 -0.0108312 -0.00120328 -0.012171 1.00794
1317 1 11.020200 14.550500 6.099590 0.00491087 0.0061925 -0.00857466 1.00794
2397 1 9.119380 12.879000 2.621380 -0.00609389 0.0187872 -0.0216285 1.00794
2503 2 13.135300 13.395100 1.226890 0.00278527 0.00131648 -0.00334945 15.9994
2505 1 12.860500 13.191600 2.120720 -0.00217662 -0.00604394 0.00027004 1.00794
4556 1 12.027600 9.456430 4.293710 -0.0193168 -0.00859578 0.0104711 1.00794
4557 1 10.570500 9.368640 4.435440 0.0186725 -0.00823133 0.017591 1.00794
5635 2 9.046770 12.918600 4.425840 0.00306182 -0.00208469 -0.00108881 15.9994
5636 1 9.783790 13.551300 4.734280 -0.012645 -0.00361838 0.00421112 1.00794
5637 1 8.218050 13.439900 4.708990 0.0108664 -0.0120333 -0.0190429 1.00794
5743 2 12.876900 13.123900 3.933520 -0.00563464 -0.000473664 -0.00184283 15.9994
5745 1 12.052800 13.593700 4.188420 -0.0231779 -0.00523547 -0.00495229 1.00794
5744 1 13.494700 13.787900 4.319430 0.0181158 -0.00143006 -0.00446847 1.00794
2395 2 9.368490 13.029700 1.676660 -0.000882362 -0.00576048 -0.00413623 15.9994
3475 2 11.596900 9.081530 1.486690 0.00162806 0.00191895 -0.000851592 15.9994
2396 1 9.549730 12.051900 1.413880 0.000978438 0.0247896 0.0143723 1.00794
1425 1 14.415400 15.081900 5.775810 0.0130395 -0.0211699 -0.0120203 1.00794
6624 1 8.040520 14.024400 1.429020 -0.00452898 0.00619472 -0.0284957 1.00794
4665 1 14.756500 9.664190 4.812550 0.00133626 0.0135456 0.00523926 1.00794
1423 2 14.582500 14.938900 4.804110 -0.00351074 0.000488329 -0.00106002 15.9994
559 2 20.931900 11.767000 4.984100 0.000246531 -0.0004534 0.00335195 15.9994
451 2 17.135600 11.117600 4.990800 -0.000928034 0.00305279 -0.00198192 15.9994
452 1 17.067100 12.078500 4.724330 -0.00456746 0.0025254 0.00200365 1.00794
453 1 17.148900 11.245700 5.987210 -0.00574676 -0.00702088 -0.0121771 1.00794
1531 2 18.517200 15.498500 5.270940 0.00141881 0.00302707 0.00300079 15.9994
1533 1 18.519200 15.572700 6.307270 -0.0095014 0.00175035 -0.00806849 1.00794
2613 1 16.991500 13.627600 2.490630 -0.0136008 0.000471852 0.00211481 1.00794
3585 1 15.522100 9.010240 2.819550 0.00332467 0.00110297 0.0044914 1.00794
3693 1 19.024600 10.088100 2.347610 -0.013147 0.020014 -0.000457511 1.00794
4663 2 15.550300 9.138070 4.513300 -0.00109167 0.00754771 -0.00174089 15.9994
4664 1 16.212500 9.818350 4.687800 -0.00385941 -0.00614154 -0.00302939 1.00794
4771 2 19.234900 9.988960 3.954320 0.000588825 0.000568111 0.00101792 15.9994
4773 1 18.403900 10.368900 4.320470 0.00164039 0.0037218 -0.00599576 1.00794
5851 2 17.043100 13.639300 4.160060 0.000449842 0.000770217 0.00695448 15.9994
5852 1 17.563800 14.239000 4.653220 -0.0230279 0.000301562 0.0224999 1.00794
5853 1 16.096700 13.969900 4.328490 0.0190219 -0.0102722 -0.00972703 1.00794
4772 1 19.944200 10.618700 4.323770 0.00748025 -0.00226844 0.0114924 1.00794
5961 1 20.009700 14.738000 4.540360 -0.00321411 0.00903481 0.0149339 1.00794
5959 2 20.918700 14.359100 4.505340 0.00104218 -0.00480598 0.00119936 15.9994
2721 1 20.970400 14.208700 2.501050 0.00428444 -0.00858205 -0.00115082 1.00794
2719 2 20.735700 14.488900 1.581760 0.0024711 0.00262223 -0.00170507 15.9994
560 1 20.939700 12.721300 4.670670 -0.00791037 -0.0116153 -0.0021019 1.00794
2611 2 16.876800 13.754100 1.527640 -0.00427277 0.00558724 0.00484324 15.9994
1424 1 14.666400 15.852000 4.489300 -0.0190472 -0.019669 -0.00990835 1.00794
3691 2 19.020100 10.130400 1.381300 0.0024738 0.000831096 -0.0021158 15.9994
561 1 21.168100 11.919900 5.909820 -0.00381523 0.0277603 0.00317372 1.00794
3583 2 15.480400 9.271690 1.870530 -0.00119536 0.0022189 0.00336473 15.9994
2612 1 16.833600 12.854000 1.223040 0.00321993 0.00231728 0.0140874 1.00794
5960 1 21.443800 15.107900 4.828060 -0.00828586 0.00105483 0.000235214 1.00794
6948 1 19.406400 15.318900 1.304600 -0.0059183 0.00453862 0.00377813 1.00794
38 1 1.323010 18.751100 5.207770 0.00239403 -0.01644 0.00500398 1.00794
39 1 1.442650 17.760100 6.415900 -0.0172659 -0.00372711 -0.0257067 1.00794
145 2 5.180390 18.108900 5.179710 -0.000487629 0.00383364 -0.000121298 15.9994
146 1 5.012850 18.975000 4.704300 -0.0140064 0.00598788 0.00899138 1.00794
147 1 5.096440 18.448900 6.122220 0.00913519 0.0141681 0.0237517 1.00794
1117 2 3.322190 22.161000 4.967720 0.00722921 -0.00201318 -0.00116175 15.9994
1118 1 3.198990 23.054700 4.520150 0.0180997 -0.00381848 -0.000748471 1.00794
1119 1 3.295590 22.402000 5.927260 -0.00547721 0.00853839 -0.0150071 1.00794
2199 1 1.361800 20.315200 3.090830 -0.00343533 0.0143504 -0.00290487 1.00794
2307 1 5.308070 20.731800 2.257090 -0.00828008 0.00972594 -0.0106787 1.00794
4358 1 4.265790 16.707200 4.666300 -0.0110501 -0.0230797 0.0027633 1.00794
4359 1 2.694100 16.802800 4.790840 0.0170874 -0.0141078 0.000573968 1.00794
4467 1 6.398450 17.185300 4.589160 -0.010692 -0.0149079 -0.002782 1.00794
5437 2 1.417290 20.358300 4.772720 -0.00389011 -0.00416891 -0.00508822 15.9994
5438 1 2.179710 21.023500 4.823180 0.00199717 -0.0197118 0.0236868 1.00794
5545 2 5.220560 20.606600 4.203770 -0.00275221 -0.00249949 -0.00210679 15.9994
5546 1 5.981560 21.173300 4.439750 -0.00104993 0.0136219 0.00667475 1.00794
5547 1 4.473380 21.186100 4.431100 -0.0121665 -0.00125617 -0.0225796 1.00794
37 2 1.436300 17.776900 5.406180 -0.00168481 0.00410094 -0.00078353 15.9994
1227 1 7.231370 22.501400 5.858540 0.000658933 -0.0178677 0.00309665 1.00794
1225 2 7.176390 22.255200 4.955900 0.00261468 -0.0014612 -0.00165832 15.9994
2305 2 5.278980 20.968200 1.282360 0.000138899 0.00329867 -0.00705755 15.9994
4465 2 7.244490 16.721500 4.376610 -0.0023717 0.00476779 -0.00399463 15.9994
3385 2 6.847360 17.004200 1.875260 0.00306573 0.00346248 0.00228036 15.9994
3387 1 6.990710 16.836400 2.811840 0.015382 -0.00595017 0.000911391 1.00794
3277 2 3.473540 16.421700 1.582930 -0.000737095 -0.00041719 -0.00132739 15.9994
5439 1 0.691952 21.001700 4.991360 -0.0105467 -0.0114553 -0.00104736 1.00794
7613 1 0.622537 17.161200 1.182200 -0.0104245 0.0177236 -0.0190532 1.00794
1226 1 6.976730 23.090500 4.561430 -0.0219648 0.0259369 -0.00906754 1.00794
2197 2 1.292040 20.424200 2.101270 -0.00210988 -0.0100749 -0.00260894 15.9994
2198 1 1.216610 19.490100 1.865880 -0.0143572 0.00182494 -0.00630413 1.00794
7721 1 4.089390 17.787700 1.211740 -0.0133411 0.0137088 -0.00531288 1.00794
7722 1 5.572890 17.961600 1.238720 -0.0206158 -0.00912618 -0.00565982 1.00794
6534 1 3.763810 21.686400 1.338310 0.00649643 0.00375229 0.000184622 1.00794
7614 1 2.074370 17.279900 1.210830 0.00698242 0.00646442 0.0210976 1.00794
6533 1 2.237120 21.633800 1.363180 -0.0121559 0.00640318 -0.0157545 1.00794
4466 1 7.863250 17.480500 4.720540 0.0068132 0.00517965 -0.0112886 1.00794
253 2 8.873320 18.511600 5.075630 0.00353045 -0.00216323 -0.00215307 15.9994
254 1 9.035070 19.386000 4.702990 -0.028855 0.0063652 -0.00555496 1.00794
255 1 8.985260 18.674800 6.055840 -0.0162936 -0.00157617 -0.0130814 1.00794
361 2 12.901300 18.848100 5.011930 0.00202834 0.000347117 -0.00270004 15.9994
362 1 13.082500 19.782600 4.666580 0.000810024 0.0067365 0.0187417 1.00794
363 1 12.464200 19.084500 5.838710 -0.00394651 -0.0153906 0.00287494 1.00794
1333 2 11.196300 22.852700 4.618660 -0.00938174 -0.00550517 -1.36348e-05 15.9994
1335 1 11.081300 23.008400 5.587160 -0.00886111 0.0088435 0.00806773 1.00794
2415 1 9.276440 20.900200 2.417680 -0.00997233 -0.00548248 0.0142553 1.00794
2523 1 13.490000 21.248600 2.283500 0.0135709 -0.00470798 -0.0133202 1.00794
3495 1 10.921700 17.216900 2.625000 -0.0146441 0.00166287 0.0108528 1.00794
4573 2 11.047400 17.128100 4.351120 -0.00121474 0.00172646 0.00182475 15.9994
4574 1 11.746100 17.758100 4.551290 -0.030168 0.015725 -0.0258811 1.00794
4575 1 10.212600 17.670900 4.483150 0.0248927 0.0114015 -0.014786 1.00794
5653 2 9.342190 21.003900 4.127630 -0.00147667 -0.00150659 0.00393189 15.9994
5654 1 9.965420 21.764500 4.269990 -0.0161339 0.00793785 0.0139043 1.00794
5655 1 8.435030 21.401800 4.390400 0.0192406 -0.000497248 -0.0079327 1.00794
5761 2 13.298000 21.253100 3.961280 -0.000817064 -0.00846502 3.35869e-05 15.9994
5763 1 12.534100 21.906300 4.148140 -0.0107378 -0.00726233 0.00842488 1.00794
5762 1 14.105400 21.823700 4.295520 -0.00631178 0.0299784 -0.00277731 1.00794
2413 2 9.346360 21.041100 1.438840 0.00584499 0.00261859 -0.00272708 15.9994
4683 1 14.033100 18.107700 4.460980 0.00112756 -0.00416566 0.00728372 1.00794
3493 2 10.684100 17.207400 1.667140 0.00164808 0.000859418 -0.000795145 15.9994
3494 1 10.936500 16.317200 1.381930 -0.00997021 -0.000495037 0.0014999 1.00794
2521 2 13.421600 21.614200 1.359630 0.00116263 0.00200952 5.15618e-05 15.9994
2414 1 9.108900 20.114600 1.182990 -0.00137238 0.00581388 -0.0153249 1.00794
1443 1 14.834300 22.973000 5.805010 -0.0128473 0.00848827 -0.00219797 1.00794
1441 2 15.220300 22.825400 4.884060 0.0023935 0.00483912 0.00143238 15.9994
1532 1 18.307800 16.346900 4.896250 0.0291764 -0.00512651 -0.00732623 1.00794
4681 2 14.729700 17.466400 4.087930 0.0015724 -0.00169189 -0.00662145 15.9994
3603 1 14.562500 17.651900 2.394200 -0.02462 -0.00237726 0.0082928 1.00794
2738 1 21.124000 20.633800 1.280490 0.0318382 -0.0173195 -0.00936961 1.00794
578 1 21.254800 19.877900 4.563120 -0.00290516 0.0164682 0.0075074 1.00794
3601 2 14.614700 17.964000 1.435910 -0.00538322 -0.00212252 0.00187262 15.9994
5979 1 20.452800 21.850800 4.545080 -0.00220637 0.00231793 0.0102335 1.00794
469 2 16.614100 19.255300 5.045020 -0.00277911 -0.00191803 0.00220399 15.9994
470 1 16.811900 20.183700 4.889770 0.00156392 0.0049098 0.014541 1.00794
471 1 16.277900 19.224600 6.010380 0.00901547 0.000476042 0.00751906 1.00794
1549 2 19.257200 22.878800 5.266270 -0.00414066 -0.00482194 0.000423609 15.9994
2631 1 17.496900 21.873300 2.313670 -0.0150054 0.0129104 0.0143614 1.00794
3711 1 18.617200 17.992900 2.499300 0.00713931 -0.00278093 0.0277722 1.00794
4682 1 15.551100 17.886600 4.493570 -0.00627672 -0.000413577 0.00477868 1.00794
4789 2 18.760100 17.970500 4.113310 0.000116634 -2.50588e-05 -0.00230641 15.9994
4791 1 17.959500 18.518500 4.395680 -0.00732326 0.0203113 0.0246444 1.00794
5869 2 17.418600 21.621500 3.967510 -0.00163908 0.00302451 0.00102156 15.9994
5870 1 18.046600 22.088000 4.528760 -0.0188836 -0.00832172 -0.0104139 1.00794
5871 1 16.562900 21.937800 4.248240 0.0110248 -0.015562 0.00702849 1.00794
4790 1 19.463400 18.387200 4.694770 0.0118389 0.0131722 0.0140478 1.00794
5977 2 21.169000 21.548200 3.995570 -0.00551274 -0.0014612 -0.00152679 15.9994
577 2 20.973100 19.163100 5.154930 -0.0059236 0.00290648 6.76375e-05 15.9994
579 1 20.885000 19.729700 6.011540 -0.00892124 -0.00640382 -0.00258067 1.00794
3709 2 18.334500 18.043600 1.544370 0.00158368 -0.00157514 -0.000517456 15.9994
2739 1 21.326100 21.509400 2.430010 0.00744598 -0.0242481 0.00325343 1.00794
2737 2 21.447800 21.512300 1.454500 -0.00757071 -4.2743e-05 -0.00397735 15.9994
2629 2 17.623800 22.119400 1.344200 0.000262331 0.00175127 0.00420385 15.9994
1551 1 18.874400 23.139900 6.143460 -0.0017283 0.00617861 0.0079032 1.00794
3710 1 18.388500 17.066500 1.334970 -0.0197389 0.0107746 -0.00230269 1.00794
8153 1 19.790400 18.829500 1.181570 -0.00327323 0.00286255 -0.00649355 1.00794
6481 2 3.482420 5.503450 7.954470 0.0019615 0.00344197 0.000507708 15.9994
6483 1 4.291830 5.006060 7.972980 0.000171444 0.00150925 -0.0083533 1.00794
2273 1 6.241770 3.395150 7.722580 -0.00907377 -0.0125473 0.010332 1.00794
3263 1 3.370060 7.049090 8.168280 0.00143873 0.00318388 0.00566885 1.00794
4 2 2.154110 2.058080 11.887100 0.00027162 0.00406624 -0.00183842 15.9994
6 1 1.986000 2.140240 12.878300 0.00150206 -0.00539521 -0.0255941 1.00794
6482 1 2.969660 5.025070 8.652260 -0.00527767 -0.0199788 -0.0210634 1.00794
113 1 6.243480 2.947250 11.263900 -0.00760601 -0.00185097 0.000455204 1.00794
1084 2 3.782220 5.864010 11.776800 -0.00183114 0.00202355 -0.000576855 15.9994
1085 1 3.522350 6.793000 11.536300 0.00913529 -0.00248498 0.00243695 1.00794
2166 1 0.971020 4.943950 9.667910 -0.0330422 0.00191489 0.0215483 1.00794
2272 2 5.997120 4.348940 8.013020 0.00075235 0.00116565 0.00219545 15.9994
2274 1 5.981080 4.125400 9.001050 -0.00528027 0.0213467 0.00134319 1.00794
5405 1 3.095340 4.896600 10.598600 -0.00361405 -0.00167865 -0.0031094 1.00794
5512 2 5.767290 4.388340 10.762900 -0.000846287 0.000306538 0.00275082 15.9994
5514 1 5.103100 4.900380 11.189000 0.0114381 -0.00215017 -0.00781164 1.00794
5404 2 2.501090 4.348240 10.063500 -0.00380572 -0.000299166 -0.00050699 15.9994
5406 1 2.329740 3.623410 10.651000 -0.0107747 -0.0112276 -0.0151542 1.00794
4342 2 3.242370 8.332440 11.162800 0.000233608 -0.000706243 -0.00162887 15.9994
3262 2 3.243710 8.034570 8.422970 -0.000882799 0.000120483 -0.000986764 15.9994
3264 1 3.027090 7.941120 9.353470 0.00890648 -0.0120873 0.00283259 1.00794
112 2 6.386980 2.052570 11.716000 -0.00218912 0.0029858 0.000498531 15.9994
5513 1 6.586240 4.823510 11.072400 0.000369761 0.0173922 -0.000178511 1.00794
1086 1 3.920210 5.941990 12.721300 -0.00454766 0.0286521 0.0058222 1.00794
114 1 6.337360 2.243270 12.700700 0.00553267 0.00592506 0.0169557 1.00794
4344 1 2.378620 8.710870 11.434500 0.0156534 0.00541592 -0.027271 1.00794
6590 1 6.966170 5.566390 7.877520 -0.0183999 -0.00195644 0.016218 1.00794
5 1 1.359470 1.514660 11.601600 -0.000901343 -0.00593036 -0.011347 1.00794
7778 1 9.453230 1.661350 7.572220 -0.0108604 -0.00956071 0.021144 1.00794
4450 2 7.408330 8.550900 11.483800 -0.00435092 -0.00171566 -0.00404966 15.9994
3370 2 7.544110 8.615720 8.690730 0.00301529 -0.00634762 -0.000811517 15.9994
3372 1 7.476060 8.508530 9.661640 -0.000424946 -0.0200755 0.0127205 1.00794
3371 1 7.637550 7.709580 8.362580 -0.00359004 -0.0014496 0.00925161 1.00794
7777 2 10.174000 2.346330 7.417980 -0.00486959 -0.00261317 -0.00178392 15.9994
6589 2 7.744180 6.235860 7.885500 0.00751624 0.00493777 0.00451314 15.9994
2489 1 14.052100 4.524730 8.214830 -0.00129831 -0.0132274 0.00995853 1.00794
6591 1 8.476310 5.657400 8.274230 0.0210434 -0.0084831 -0.00477591 1.00794
6697 2 11.716900 6.450550 7.777010 -0.000276103 -0.00173544 -0.00283557 15.9994
7779 1 10.953400 1.831590 7.845540 0.00540458 0.0134994 -0.00287494 1.00794
7886 1 13.318400 2.227170 8.015240 0.00816334 0.0022862 0.0029566 1.00794
6698 1 10.996500 5.835420 8.025310 0.00810539 -0.0178721 0.0103979 1.00794
6699 1 12.522100 6.032550 8.212550 -0.0256679 0.0162885 -0.0144896 1.00794
2381 1 9.944240 3.814650 8.180370 0.0151327 -0.0205252 -0.000854774 1.00794
1192 2 7.869570 5.941340 12.026800 -0.00352722 -0.00301163 0.00285231 15.9994
1193 1 7.688790 6.869890 11.848000 0.00554145 -0.000379064 0.0132839 1.00794
220 2 10.156800 1.979600 11.738600 -0.00142991 -0.0007668 0.000301581 15.9994
221 1 9.993790 2.929980 11.635800 0.00789341 0.00911029 0.0184049 1.00794
329 1 14.105700 3.582850 11.746900 -0.0122022 -0.0113477 0.0155477 1.00794
1300 2 11.728800 6.326890 11.917000 0.00567605 -0.000509199 0.000897852 15.9994
1301 1 11.522000 7.186670 11.466100 -0.0203315 -0.00461422 0.00824054 1.00794
2380 2 9.746920 4.739630 8.396910 -0.000474545 0.00701909 0.00644241 15.9994
2382 1 9.954360 4.654740 9.342460 -0.0100904 -0.0195415 0.00375635 1.00794
2488 2 13.954500 5.428490 8.561550 -0.00350861 -0.00349463 -0.00314577 15.9994
2490 1 13.792900 5.260410 9.528800 0.00411604 -0.0286166 -0.0155741 1.00794
5620 2 9.950250 4.593070 11.262000 -0.00356684 -0.00126145 -0.00383751 15.9994
5621 1 10.670700 5.245860 11.573300 -0.012305 -0.00848383 -0.0161277 1.00794
5622 1 9.196650 5.139790 11.565000 0.00277397 0.0107779 -0.0187589 1.00794
5728 2 13.912900 5.153060 11.093800 -0.0011457 -0.00202231 -0.00274689 15.9994
5730 1 13.033400 5.534320 11.416200 0.00428177 7.29419e-05 0.00660233 1.00794
3479 1 11.515500 8.180600 8.110880 -0.0128573 -0.0370237 -0.0290344 1.00794
328 2 14.405900 2.676490 11.999800 -5.78975e-06 0.00245972 -0.00256576 15.9994
330 1 14.094300 2.679780 12.926800 0.00243569 0.0278417 0.00282771 1.00794
1194 1 7.891750 5.943650 12.995300 0.00904293 0.00703918 -0.0179721 1.00794
7885 2 13.938900 2.959280 7.967600 -0.00616732 0.000740851 0.00653709 15.9994
5729 1 14.514500 5.819700 11.500300 0.00148622 -0.0143987 -0.00358981 1.00794
222 1 10.219200 1.993280 12.743100 -0.00766017 0.0248755 -0.0305193 1.00794
1302 1 11.788300 6.577370 12.846100 -7.36218e-05 0.0159101 0.0111294 1.00794
4541 1 13.129100 1.564830 11.518500 0.00198581 -0.00053118 -0.0208898 1.00794
7887 1 14.725100 2.404630 7.991920 0.0211077 0.00657646 -0.0170182 1.00794
6913 2 19.492300 7.689590 7.597720 -0.0022422 -0.000243312 -0.00227795 15.9994
7995 1 19.222200 3.116480 7.537270 -0.00338982 -0.0154357 -0.0233093 1.00794
6806 1 14.958900 6.568780 8.206630 -0.00184922 0.00954917 -0.0014838 1.00794
6805 2 15.708500 7.226460 8.081040 0.00147648 0.00241426 0.00643246 15.9994
6807 1 16.549100 6.658780 8.259630 -0.0103051 0.0108801 -0.015269 1.00794
6914 1 18.945000 6.916800 7.782430 -0.00475104 -0.0154274 0.00123974 1.00794
6915 1 20.406900 7.337920 7.794510 -0.00559745 0.0054172 0.0239614 1.00794
7994 1 17.784500 2.650650 7.292230 0.0151478 0.00375221 0.0195131 1.00794
2597 1 18.142500 4.814880 7.841810 -0.0121894 0.00614603 0.0305747 1.00794
3676 2 20.481400 2.156080 8.329650 -0.00483669 0.00185787 -0.00506103 15.9994
436 2 18.186600 3.122740 11.450300 -0.00116573 -0.0049575 -0.00322912 15.9994
437 1 17.859400 4.015430 11.075200 -0.0295561 0.000982349 -0.00310701 1.00794
1408 2 15.589000 6.787180 11.982800 0.00251455 0.000664797 0.000104357 15.9994
1409 1 15.700600 7.699120 11.720400 0.00794621 0.00108731 -0.0159634 1.00794
1516 2 19.406000 7.276620 11.512100 -0.00218042 0.000638715 -0.000634665 15.9994
1517 1 19.486800 8.257420 11.365000 0.00626159 0.00127446 0.00232254 1.00794
2596 2 17.979000 5.730190 8.191940 0.00456156 0.00181494 -0.00755916 15.9994
2598 1 17.871800 5.464090 9.165260 0.0147784 0.0184856 -0.00504349 1.00794
4649 1 17.148200 2.060480 10.875900 -0.00160729 0.0224273 -0.000717034 1.00794
4758 1 19.698000 2.408980 11.023500 -0.00253485 0.00849642 0.00915214 1.00794
5836 2 17.526400 5.488880 10.738200 -0.00344893 -0.00479083 0.00350899 15.9994
5837 1 18.242200 6.060910 11.111800 -0.000187722 -0.00672852 -0.0123032 1.00794
5838 1 16.750200 5.765260 11.248000 -0.0161219 -0.00855831 0.0231664 1.00794
4757 1 21.142500 2.461910 11.572700 0.0163529 0.0119011 -0.00424901 1.00794
5946 1 20.857700 6.620370 11.012400 -0.00209441 -0.00588209 -0.00159975 1.00794
438 1 18.123200 3.292310 12.455800 -0.00406238 0.00922259 0.00466749 1.00794
4650 1 15.557400 1.875760 11.067900 0.000684714 0.0135341 -0.00639853 1.00794
4756 2 20.544200 1.912300 10.986700 0.00285522 -0.00848343 -8.04356e-06 15.9994
3678 1 20.518200 1.914710 9.269880 0.00244429 0.0116164 -0.00681547 1.00794
1518 1 19.439900 7.346550 12.474900 -0.00722455 0.000644703 -0.0178868 1.00794
3568 2 16.872600 1.567250 8.161380 0.00160972 -0.00142445 0.000106005 15.9994
1410 1 15.796800 6.927660 12.947600 -0.00787623 0.0249223 0.0122488 1.00794
8102 1 21.529300 3.076300 7.784460 0.00526712 -0.00296743 0.0112817 1.00794
7473 1 0.487556 13.006100 7.926920 0.00646412 -0.0192287 0.0214101 1.00794
5424 1 0.970132 12.565300 11.455900 -0.00922867 -0.00368913 0.02357 1.00794
4343 1 3.914560 9.036800 11.292500 -0.00919437 -0.00901935 0.0135607 1.00794
4452 1 6.611110 9.096890 11.710400 -0.00368381 -0.0241021 0.00186075 1.00794
7580 1 0.479041 9.254420 7.917820 -0.019293 0.0076733 -0.0311002 1.00794
7687 2 5.189160 10.034400 7.979480 -0.00310542 0.000413448 -0.000987806 15.9994
6499 2 3.434070 13.829200 7.596710 -0.000838958 -0.00164571 -0.00127933 15.9994
6500 1 2.862300 13.046900 7.797280 0.00860883 -0.00704833 0.0138526 1.00794
6501 1 4.230140 13.459100 7.923640 0.0309473 0.00889618 -0.0145834 1.00794
7579 2 1.307910 9.696290 7.679110 -0.00230616 -0.00362658 -0.00462889 15.9994
7581 1 1.925430 8.971310 7.886650 -0.00374159 -0.0111893 -0.00671351 1.00794
7688 1 4.501990 9.334490 8.098820 -0.0141628 -0.00065351 -0.0115393 1.00794
6608 1 6.556710 13.549700 8.230610 -0.0184682 0.0129203 0.0110014 1.00794
2183 1 1.551380 11.152500 8.173470 -0.00158033 -0.0134005 0.0112626 1.00794
3281 1 3.397870 15.396400 8.241630 0.0163066 0.00800575 0.00366582 1.00794
2182 2 1.627890 12.073500 8.473350 0.00535125 0.00184012 -0.00241913 15.9994
2291 1 5.686540 11.611000 8.332070 -0.00455667 0.00807733 0.00384003 1.00794
7689 1 5.927060 9.500270 8.378620 0.0101465 -0.00884313 0.00612979 1.00794
130 2 5.211820 10.015000 12.125300 -0.000733039 0.00915332 -0.00354478 15.9994
131 1 5.423520 10.964400 11.912900 0.00793266 0.000303651 0.0227268 1.00794
1102 2 3.461560 13.939900 12.146400 0.00608601 0.0028366 -3.14293e-05 15.9994
1103 1 3.485410 14.873000 11.794300 0.00866167 0.00436927 -0.00217788 1.00794