ITEM: TIMESTEP
0
ITEM: NUMBER OF ATOMS
4500
ITEM: BOX BOUNDS pp pp pp
2.6450000000000001e-02 3.5532800000000002e+01
2.6450000000000001e-02 3.5532800000000002e+01
2.6409999999999999e-02 3.5473599999999998e+01
ITEM: ATOMS id type x y z
1 1 12.1246 28.093 22.2745
2 2 12.5368 28.7561 22.8993
3 2 11.4948 28.5639 21.6568
4 1 1.17079 29.3778 23.7298
5 2 1.91804 29.4848 23.074
6 2 0.40074 28.9196 23.2859
7 1 29.6831 14.7373 21.6279
8 2 30.5428 14.9374 21.158
9 2 29.7313 15.0734 22.5685
10 1 10.8727 7.00153 35.1092
11 2 11.1106 6.21663 34.5371
12 2 9.95658 7.32301 34.8698
13 1 9.46588 6.43648 19.799
14 2 9.0484 6.32936 18.8967
15 2 10.3172 5.91326 19.8366
16 1 3.17905 29.698 22.1192
17 2 3.1924 30.6329 21.7646
18 2 3.38651 29.058 21.3794
19 1 23.3862 11.2998 30.7824
20 2 23.6988 10.4669 31.239
21 2 24.1735 11.7921 30.4113
22 1 11.0376 10.4611 30.1474
23 2 10.9468 11.4511 30.2546
24 2 11.6068 10.0968 30.8845
25 1 26.24 25.4094 21.0675
26 2 25.6704 26.0926 21.5244
27 2 26.2231 25.5676 20.0803
28 1 10.8409 35.3391 19.7835
29 2 10.207 0.54421 19.4802
30 2 11.0625 34.7401 19.0141
31 1 20.0738 4.95885 33.6236
32 2 19.7736 5.8708 33.9032
33 2 20.6815 4.57954 34.3214
34 1 12.439 28.5666 17.3984
35 2 12.8035 27.995 18.1335
36 2 11.6389 28.1218 16.996
37 1 14.8034 7.14199 1.42116
38 2 14.86 6.68442 0.53382
39 2 14.1359 6.67036 1.99737
40 1 15.8797 22.1833 24.1347
41 2 15.971 22.7153 23.2929
42 2 16.6962 22.3085 24.6983
43 1 13.2919 18.3047 12.3716
44 2 12.5584 18.6323 12.967
45 2 13.2482 18.7833 11.4947
46 1 20.2741 23.9416 15.5021
47 2 20.1785 24.6773 14.8317
48 2 20.6201 23.1202 15.0486
49 1 30.102 10.7818 14.2432
50 2 29.4017 11.0052 13.5653
51 2 29.7012 10.2133 14.9616
52 1 19.7153 12.9898 25.4058
53 2 20.2152 13.3585 26.1894
54 2 18.7525 12.873 25.6496
55 1 4.22362 18.9931 32.6295
56 2 4.05067 18.1787 32.0756
57 2 3.38513 19.5335 32.6983
58 1 17.6728 30.868 34.8693
59 2 17.1887 31.7422 34.9053
60 2 18.1861 30.8061 34.0134
61 1 7.49194 27.8402 34.656
62 2 7.36412 27.3799 33.7775
63 2 7.8365 27.1853 35.3285
64 1 9.58199 8.75878 28.3877
65 2 8.89931 8.96106 27.6856
66 2 9.61451 9.50981 29.0471
67 1 18.1545 7.97877 4.02967
68 2 17.6538 8.02465 3.16529
69 2 17.5607 7.59903 4.73904
70 1 13.4547 10.3019 21.946
71 2 14.1265 11.0172 21.7537
72 2 13.1554 10.373 22.8975
73 1 28.7737 1.83495 6.23711
74 2 29.5541 1.23316 6.06742
75 2 28.4386 1.6917 7.16831
76 1 21.1741 3.00906 4.56251
77 2 21.0077 2.96011 5.54734
78 2 21.1749 3.96581 4.27178
79 1 15.8626 20.7763 10.3468
80 2 15.8475 19.9923 10.9673
81 2 15.7676 20.4569 9.40393
82 1 19.3728 6.41248 28.3323
83 2 19.8693 6.14505 27.5065
84 2 19.2366 7.40311 28.3332
85 1 19.6987 26.8011 22.5667
86 2 20.5187 26.5454 22.0547
87 2 19.5252 26.1213 23.2793
88 1 10.4493 1.95847 4.23874
89 2 10.9944 1.49085 4.9346
90 2 10.845 2.85816 4.05448
91 1 6.35411 29.1972 23.1792
92 2 5.50252 29.6539 23.4364
93 2 7.0135 29.8773 22.8589
94 1 27.7031 33.6387 1.45545
95 2 27.4551 34.5685 1.72731
96 2 28.2382 33.2101 2.18338
97 1 34.5415 25.9072 10.9727
98 2 34.2694 25.0724 10.494
99 2 34.7463 26.6227 10.3048
100 1 35.137 10.3516 32.7539
101 2 35.3167 9.89658 31.8817
102 2 35.4069 9.74994 33.5056
103 1 19.4555 25.2295 13.0689
104 2 18.6355 25.7908 12.9568
105 2 19.5726 24.6464 12.2651
106 1 8.76637 34.606 24.2015
107 2 9.50956 34.7087 24.8626
108 2 9.1164 34.1722 23.3712
109 1 18.5219 34.0029 24.7622
110 2 19.5019 33.8741 24.6112
111 2 18.0081 33.4432 24.112
112 1 5.46879 16.7565 12.0936
113 2 5.19937 17.6766 11.8093
114 2 5.6524 16.7517 13.0765
115 1 26.7819 26.5427 35.1712
116 2 27.384 26.9334 0.42029
117 2 27.1809 25.6943 34.8235
118 1 14.0425 15.273 12.4152
119 2 14.3616 15.765 13.2252
120 2 14.3096 15.7758 11.5931
121 1 6.75576 6.34672 6.04938
122 2 7.5817 5.78427 6.08735
123 2 5.98388 5.83092 6.42094
124 1 10.8658 34.9306 25.9817
125 2 10.6941 35.3245 26.8846
126 2 11.5917 35.4457 25.5259
127 1 18.3453 30.512 26.2745
128 2 18.0417 30.2955 25.3466
129 2 19.1755 31.0678 26.2323
130 1 13.1849 0.77946 20.6249
131 2 13.4491 0.56426 21.565
132 2 12.2915 0.3751 20.4289
133 1 24.4779 24.0588 28.2094
134 2 24.1571 23.1417 27.973
135 2 23.7439 24.7195 28.0521
136 1 30.791 15.3378 34.8674
137 2 31.1761 15.3231 0.3429
138 2 29.9783 14.7561 34.8361
139 1 18.3089 19.7691 34.2373
140 2 17.7598 20.1985 33.5204
141 2 19.0483 19.241 33.8197
142 1 24.1892 16.2111 25.5392
143 2 24.3509 17.176 25.3322
144 2 24.2557 16.0663 26.5264
145 1 9.29176 8.02479 32.2384
146 2 10.2565 7.88688 32.4624
147 2 8.95956 7.24816 31.7032
148 1 5.32982 1.15354 27.6455
149 2 4.519 0.59091 27.4844
150 2 5.0501 2.09452 27.8359
151 1 22.8985 21.3384 11.6389
152 2 23.2439 20.5199 12.098
153 2 22.4357 21.0754 10.7924
154 1 16.8846 32.6078 23.1633
155 2 15.9062 32.8015 23.091
156 2 17.0167 31.6511 23.4228
157 1 29.2441 7.09722 23.707
158 2 28.4775 7.53121 24.1802
159 2 29.5422 7.68009 22.9511
160 1 34.2995 6.85677 2.08156
161 2 34.9735 6.89704 1.3439
162 2 33.7096 7.66305 2.03849
163 1 32.9541 29.2689 19.2597
164 2 32.5742 28.3725 19.4878
165 2 33.6666 29.1623 18.5662
166 1 9.78186 33.7316 21.967
167 2 9.24351 33.1144 21.3933
168 2 10.1528 34.4707 21.4047
169 1 7.86139 6.97451 8.72713
170 2 8.16632 6.08021 9.05452
171 2 7.15204 6.85123 8.03315
172 1 34.2522 27.8171 31.7931
173 2 34.7005 28.6082 31.377
174 2 33.7522 28.1081 32.6087
175 1 34.9405 26.8484 19.5204
176 2 35.4046 26.0058 19.7934
177 2 34.1505 26.624 18.9499
178 1 21.7641 32.2057 20.8916
179 2 22.6624 31.8248 21.1107
180 2 21.7667 33.1896 21.0703
181 1 34.3079 3.43694 14.2416
182 2 34.8883 2.82261 13.7071
183 2 34.8798 4.10183 14.722
184 1 17.8811 18.9103 14.4219
185 2 17.9254 18.9768 15.4186
186 2 18.5957 19.4811 14.0177
187 1 19.084 14.2291 20.7838
188 2 19.6217 13.8263 21.5245
189 2 18.6245 13.5029 20.2725
190 1 7.85997 17.9783 9.48138
191 2 7.51843 18.8587 9.15243
192 2 8.12328 17.4105 8.70147
193 1 0.30367 23.1833 0.381
194 2 35.3448 24.0684 0.38922
195 2 35.1316 22.4497 0.42108
196 1 4.53675 21.2162 29.862
197 2 5.08827 22.0378 29.7178
198 2 5.02017 20.5941 30.4778
199 1 3.76321 1.66558 34.1162
200 2 4.7298 1.83277 33.9219
201 2 3.56027 1.93821 35.0567
202 1 35.1795 34.7022 7.53093
203 2 34.2207 34.474 7.36203
204 2 0.09341 33.9853 8.0872
205 1 24.82 8.21485 16.0934
206 2 25.5582 8.87272 15.9445
207 2 25.0095 7.68219 16.9182
208 1 4.18282 28.5283 29.7084
209 2 5.11675 28.3857 30.0361
210 2 4.20438 29.0579 28.8605
211 1 26.4372 31.273 3.91741
212 2 26.5184 30.5685 3.21243
213 2 27.3201 31.7267 4.03853
214 1 35.1124 7.70363 27.0802
215 2 35.1742 7.38841 28.0272
216 2 34.5439 7.07077 26.5546
217 1 21.454 34.0566 2.90167
218 2 21.0249 33.7627 3.75574
219 2 22.281 34.5799 3.10701
220 1 31.2124 3.31299 25.804
221 2 30.7251 4.00625 25.2731
222 2 31.5151 3.70889 26.6709
223 1 7.36998 1.04818 25.8312
224 2 7.49443 0.23812 25.2582
225 2 6.65222 0.87278 26.5049
226 1 30.3448 6.09271 15.7348
227 2 30.8702 5.5598 15.0716
228 2 30.4178 5.66752 16.6369
229 1 34.94 25.1538 32.0367
230 2 34.6546 24.5743 32.8
231 2 34.5772 26.0767 32.1651
232 1 0.48609 26.4108 7.9569
233 2 35.2444 26.0614 7.39276
234 2 0.34398 27.3849 8.13268
235 1 28.5553 15.8355 29.5306
236 2 28.3543 16.8113 29.6165
237 2 29.5147 15.7139 29.2764
238 1 18.1478 14.6904 4.78991
239 2 18.5303 15.5227 5.1911
240 2 17.2896 14.9083 4.32534
241 1 23.9887 17.7991 4.00089
242 2 24.9108 17.8024 3.61409
243 2 23.5603 16.911 3.83379
244 1 27.7861 18.3999 29.8264
245 2 27.0838 18.9361 30.2945
246 2 28.3531 19.0069 29.2697
247 1 32.5587 20.9931 23.1596
248 2 33.1448 20.5401 22.488
249 2 32.4607 21.9588 22.919
250 1 0.52838 10.6884 20.5135
251 2 35.1841 10.6954 21.0392
252 2 1.10279 11.4556 20.7988
253 1 24.9868 7.82783 20.9406
254 2 25.9098 7.94912 20.5756
255 2 24.3173 8.12211 20.2586
256 1 22.8439 20.1252 4.77949
257 2 23.2195 19.2014 4.85318
258 2 23.5676 20.7582 4.50442
259 1 33.5355 10.0148 10.4564
260 2 32.8312 9.3545 10.717
261 2 34.1017 10.2298 11.252
262 1 16.0058 10.0189 6.93528
263 2 16.4148 10.7469 6.38507
264 2 15.0177 10.1605 6.99384
265 1 29.8115 30.3224 24.4062
266 2 29.9199 30.0288 25.356
267 2 29.9357 29.5379 23.7987
268 1 4.63663 9.89409 32.0904
269 2 4.00394 9.69969 31.3409
270 2 5.49457 9.4035 31.9382
271 1 32.8575 18.7924 15.2642
272 2 33.0756 17.8838 15.6204
273 2 33.3939 19.4799 15.7536
274 1 0.61908 7.9515 15.2532
275 2 0.05994 7.85361 16.0765
276 2 35.5302 8.04513 14.4552
277 1 2.411 1.86682 23.9442
278 2 2.4631 1.85101 22.9458
279 2 2.78298 1.01413 24.311
280 1 35.1318 4.79424 16.915
281 2 34.7946 5.73186 16.8307
282 2 34.4881 4.25622 17.4592
283 1 0.97118 31.0443 15.1796
284 2 35.516 31.2996 15.2803
285 2 1.24465 30.4658 15.948
286 1 2.19969 4.72227 17.0278
287 2 2.38681 5.64899 17.3536
288 2 1.21985 4.62094 16.8557
289 1 11.3246 9.43507 18.2339
290 2 11.3563 9.66113 17.2604
291 2 10.4186 9.65219 18.5973
292 1 1.17633 29.8745 2.30651
293 2 0.77781 30.5446 1.68034
294 2 2.08692 30.1794 2.5855
295 1 30.896 1.46693 1.97982
296 2 31.6638 1.01488 2.43382
297 2 30.6706 0.97609 1.13828
298 1 5.03295 1.93998 10.3155
299 2 4.31256 1.98624 11.0075
300 2 4.62804 2.03388 9.40598
301 1 12.0888 2.72082 8.77105
302 2 11.7393 2.99595 9.66666
303 2 12.2194 3.53177 8.20074
304 1 33.015 6.97472 32.6973
305 2 32.3338 6.9879 31.9653
306 2 33.9289 7.07439 32.3039
307 1 24.1976 6.71414 6.62083
308 2 24.485 5.94255 6.05339
309 2 23.3435 7.0914 6.26267
310 1 11.2079 33.66 13.7399
311 2 11.0861 33.9643 12.7952
312 2 12.1606 33.7934 14.0128
313 1 9.0456 20.2474 13.1331
314 2 8.82766 19.4779 13.7334
315 2 9.27855 19.9046 12.223
316 1 8.42921 16.2949 7.43324
317 2 9.19124 15.7206 7.13424
318 2 7.64285 15.7175 7.65276
319 1 8.18016 30.957 14.0726
320 2 7.61764 30.4712 14.7415
321 2 7.67505 31.7458 13.7225
322 1 17.7641 27.722 30.1786
323 2 17.6528 28.6356 29.7875
324 2 17.4486 27.7249 31.1275
325 1 17.4577 25.8551 16.7831
326 2 18.0164 26.6272 17.0858
327 2 17.9643 25.0037 16.9188
328 1 28.6 12.4547 18.3044
329 2 28.8689 12.5006 17.3424
330 2 28.3284 13.3644 18.6184
331 1 20.0396 19.6071 21.6149
332 2 19.2143 19.3587 22.1219
333 2 20.567 20.2732 22.1423
334 1 24.4302 31.0811 15.2743
335 2 24.6723 31.0568 14.3044
336 2 23.6216 31.6554 15.4017
337 1 14.0348 4.28377 28.2302
338 2 13.7183 5.06061 27.6859
339 2 14.8131 3.85222 27.7741
340 1 3.18866 1.92022 1.25228
341 2 3.95739 2.04883 1.87873
342 2 2.56934 1.22782 1.62238
343 1 22.5447 23.6022 9.46826
344 2 22.8153 22.7834 8.96211
345 2 23.3455 23.9939 9.92131
346 1 6.44525 3.02083 18.876
347 2 5.9694 2.76314 19.7169
348 2 5.93293 2.68338 18.0864
349 1 12.3166 10.9431 26.1838
350 2 11.7828 11.6082 26.7058
351 2 12.5282 10.1565 26.7639
352 1 8.93649 1.70958 18.8143
353 2 9.43794 2.41836 19.3105
354 2 8.03395 2.05639 18.5593
355 1 2.23387 20.2181 0.67571
356 2 1.96454 19.3297 0.304
357 2 1.48917 20.8729 0.54693
358 1 32.347 18.1365 22.3822
359 2 31.7591 18.9078 22.6261
360 2 32.8541 17.8355 23.1898
361 1 20.246 32.0954 18.4947
362 2 19.3745 32.5638 18.6401
363 2 20.8229 32.2063 19.3039
364 1 32.444 13.4849 19.5472
365 2 32.4922 14.2744 20.1591
366 2 31.9959 13.7516 18.6939
367 1 35.2659 18.2161 1.39574
368 2 0.12239 18.4083 2.30752
369 2 34.4901 17.5896 1.47095
370 1 3.39252 26.4373 7.3593
371 2 2.42858 26.4207 7.6248
372 2 3.52347 25.8732 6.54412
373 1 15.9472 21.757 15.7708
374 2 16.582 22.155 15.1085
375 2 15.2293 21.2576 15.2858
376 1 20.4938 23.5718 7.41254
377 2 19.7041 23.4522 8.01425
378 2 21.2909 23.8333 7.95669
379 1 6.64565 4.33685 1.91046
380 2 6.29368 4.91344 1.17318
381 2 7.51811 4.70392 2.23304
382 1 26.7066 32.8928 9.89051
383 2 26.5975 31.8988 9.88051
384 2 27.3614 33.1491 10.6014
385 1 5.48704 32.6303 12.9317
386 2 5.73825 33.4925 13.3716
387 2 4.53739 32.4079 13.1523
388 1 3.37091 5.9547 9.99334
389 2 3.99627 6.57052 10.4725
390 2 3.39679 5.05241 10.4236
391 1 2.63445 9.3784 30.0084
392 2 2.81625 9.87705 29.1609
393 2 1.69314 9.04098 30.0012
394 1 0.97785 8.01694 8.99862
395 2 1.8594 8.12605 8.5394
396 2 0.38758 8.79268 8.77566
397 1 2.73822 11.5298 15.3858
398 2 3.54689 11.8438 15.8833
399 2 2.92713 10.6402 14.9701
400 1 18.3557 23.169 17.3705
401 2 17.7837 22.4372 17.0001
402 2 19.0684 23.4023 16.709
403 1 9.13053 4.89654 5.72398
404 2 9.75352 5.64004 5.96693
405 2 9.4531 4.04375 6.13467
406 1 7.31448 35.3513 12.8644
407 2 7.78778 35.1642 13.7252
408 2 6.36291 0.0876 13.0532
409 1 0.52118 24.3998 19.6649
410 2 0.83476 23.5709 20.128
411 2 0.24832 24.1759 18.7292
412 1 11.6431 23.4208 11.5291
413 2 12.6168 23.6468 11.5012
414 2 11.1483 24.1385 12.0189
415 1 3.45756 3.18529 19.1296
416 2 3.12124 3.74194 18.37
417 2 3.81274 3.78249 19.8487
418 1 20.6331 31.6407 26.8936
419 2 21.2284 31.758 26.0988
420 2 20.8243 32.3591 27.5623
421 1 27.8724 20.3287 9.33395
422 2 27.0269 20.7724 9.03698
423 2 27.6606 19.6341 10.0215
424 1 31.2904 11.9346 0.40169
425 2 31.3788 12.0352 1.39266
426 2 30.3229 11.9545 0.1497
427 1 21.3949 7.42434 2.71837
428 2 22.2692 6.94124 2.67113
429 2 21.0175 7.34108 3.64064
430 1 20.0191 19.5369 17.1665
431 2 19.0356 19.4276 17.0226
432 2 20.1768 20.1002 17.9775
433 1 3.61472 34.6743 24.7223
434 2 3.58465 34.5404 25.7128
435 2 4.5522 34.5496 24.3974
436 1 23.4167 19.5569 18.8981
437 2 24.1013 19.0041 18.423
438 2 22.9987 20.1965 18.2531
439 1 13.0199 3.81803 4.38911
440 2 13.3807 3.06814 3.83464
441 2 12.9236 4.63574 3.82163
442 1 15.2842 28.3699 13.0709
443 2 15.7503 28.8669 12.339
444 2 14.3794 28.0835 12.7556
445 1 31.0729 4.64018 29.6441
446 2 30.8904 5.3524 30.3219
447 2 31.285 5.06438 28.7637
448 1 18.67 22.7197 9.28241
449 2 19.4332 22.6801 9.9273
450 2 18.1867 21.8442 9.28383
451 1 20.6768 4.79499 26.4446
452 2 21.3631 4.9068 25.7259
453 2 19.8656 4.35059 26.0646
454 1 23.3249 28.5938 34.8759
455 2 22.3442 28.7767 34.8078
456 2 23.4715 27.618 35.0382
457 1 19.3043 32.1597 13.0147
458 2 18.7968 32.1751 13.8762
459 2 19.7477 33.0447 12.8731
460 1 34.7636 20.4989 35.2439
461 2 34.8009 20.2298 34.2816
462 2 34.8967 19.693 0.37358
463 1 13.9865 1.37155 3.23039
464 2 13.5499 0.47234 3.25696
465 2 14.8802 1.32142 3.67626
466 1 24.9612 8.59168 8.51399
467 2 24.9001 7.88536 7.8088
468 2 25.9211 8.74798 8.74688
469 1 14.178 14.8666 29.6202
470 2 14.5062 13.9671 29.9084
471 2 13.2088 14.8071 29.3817
472 1 32.4921 9.01293 2.57301
473 2 31.8852 8.85624 3.35211
474 2 32.9948 9.86668 2.7085
475 1 33.4788 32.1762 27.4684
476 2 33.3294 32.2128 28.4565
477 2 34.0697 31.3998 27.2492
478 1 31.0962 6.2232 0.75259
479 2 31.5935 5.78768 35.4495
480 2 31.3613 7.18545 0.81397
481 1 14.5722 18.7896 19.0883
482 2 15.5108 18.795 19.4332
483 2 14.2272 17.8511 19.0753
484 1 34.1227 15.7723 34.761
485 2 34.1749 15.1958 0.12925
486 2 33.3416 16.3916 34.8401
487 1 27.1848 6.31416 11.1444
488 2 27.1936 6.8844 10.323
489 2 26.8271 6.84346 11.9138
490 1 11.8431 26.7796 35.2864
491 2 10.9657 26.4343 0.17205
492 2 12.4934 26.8236 0.59765
493 1 7.69412 20.7208 27.4978
494 2 7.69014 21.7035 27.3129
495 2 7.81598 20.2208 26.6404
496 1 23.5083 8.78434 32.0301
497 2 23.2686 8.22923 31.2337
498 2 23.3965 8.24013 32.8616
499 1 15.5716 13.0001 12.6017
500 2 14.7908 13.5465 12.9047
501 2 15.4572 12.7613 11.6374
502 1 11.2988 27.9293 8.68449
503 2 11.6464 27.0703 8.30868
504 2 11.2791 28.6239 7.96544
505 1 15.7587 14.5551 3.49819
506 2 16.0352 15.149 2.74271
507 2 15.6147 13.6264 3.15656
508 1 29.0415 26.8844 19.8509
509 2 28.5657 26.7536 18.9811
510 2 28.975 27.8434 20.1262
511 1 28.0281 8.84491 0.36833
512 2 29.0239 8.89761 0.29466
513 2 27.771 8.71695 1.32619
514 1 32.7501 2.39378 21.0186
515 2 32.1449 1.59871 20.9796
516 2 33.7013 2.09215 20.9532
517 1 16.2525 5.40744 30.729
518 2 16.7314 6.28231 30.8011
519 2 16.6048 4.89842 29.9437
520 1 28.578 22.3152 24.2243
521 2 28.5847 23.0966 24.8483
522 2 29.275 21.6565 24.5075
523 1 31.7129 17.9841 9.79888
524 2 32.5983 17.6094 10.0739
525 2 31.028 17.7653 10.4938
526 1 28.8212 33.245 34.5956
527 2 28.5472 33.9796 33.9749
528 2 28.3328 33.3419 35.4628
529 1 34.6088 19.7154 32.7129
530 2 34.6459 19.244 31.8318
531 2 33.9198 20.4391 32.6749
532 1 17.6961 27.6507 3.21742
533 2 18.4671 27.4143 3.80862
534 2 17.7884 28.5985 2.91219
535 1 26.6881 34.6217 27.4934
536 2 26.4551 35.4475 28.0069
537 2 26.5949 34.8008 26.514
538 1 21.3362 26.6247 14.5046
539 2 20.6957 26.1627 13.8911
540 2 22.2592 26.5728 14.1234
541 1 0.36454 14.166 2.11556
542 2 0.97624 14.6598 1.49757
543 2 35.1144 13.7734 1.59245
544 1 23.7932 1.57159 23.815
545 2 23.005 1.11432 24.2269
546 2 23.4893 2.12744 23.0414
547 1 8.54975 33.4624 4.50736
548 2 9.38674 33.1918 4.03176
549 2 7.78193 33.4446 3.867
550 1 33.975 22.1762 28.9386
551 2 33.7355 23.0501 29.3616
552 2 34.5369 22.3411 28.1281
553 1 14.495 4.44877 8.81426
554 2 14.1172 4.62743 7.90582
555 2 15.4232 4.81711 8.8675
556 1 33.7961 24.0179 9.18291
557 2 33.9701 23.0865 8.86336
558 2 33.5597 24.5988 8.40407
559 1 16.2285 19.0034 12.266
560 2 16.9487 18.9845 12.9595
561 2 15.3589 18.7363 12.6813
562 1 31.0084 33.5732 32.2527
563 2 30.9472 33.2437 33.1948
564 2 30.2927 33.1434 31.7021
565 1 2.10006 7.03828 25.4938
566 2 1.34846 7.26527 26.1131
567 2 2.26908 6.05309 25.5219
568 1 20.3905 7.66788 35.4535
569 2 20.3274 7.14917 0.85891
570 2 21.3161 7.58937 35.0833
571 1 29.2739 19.0319 27.6853
572 2 28.408 18.617 27.4061
573 2 30.0092 18.6973 27.096
574 1 13.9394 22.6615 17.3852
575 2 14.7902 22.518 16.8798
576 2 14.0299 23.4691 17.9679
577 1 25.1285 22.9244 17.5385
578 2 24.2788 22.3985 17.577
579 2 25.7634 22.5831 18.2315
580 1 14.8142 28.3636 3.792
581 2 15.7903 28.2893 3.58772
582 2 14.6933 28.6389 4.7457
583 1 9.4176 1.55572 11.4412
584 2 9.09058 1.0217 12.2208
585 2 9.03168 1.18373 10.597
586 1 0.58572 35.2956 12.1149
587 2 1.04027 34.426 11.9218
588 2 35.3465 35.4338 11.4631
589 1 24.9957 27.1137 22.8591
590 2 24.9447 26.624 23.7295
591 2 24.9728 28.0988 23.029
592 1 28.0983 27.0814 14.3674
593 2 28.1457 26.0905 14.4937
594 2 28.798 27.3679 13.713
595 1 29.4416 8.93119 21.3883
596 2 29.928 9.47643 20.7055
597 2 28.7732 8.3442 20.9315
598 1 5.82233 14.8962 2.82244
599 2 5.70821 13.9749 3.19408
600 2 5.10567 15.0748 2.14829
601 1 31.1132 8.01659 27.8843
602 2 31.5124 8.74883 27.3326
603 2 30.7992 7.28065 27.2845
604 1 24.921 28.5918 25.9692
605 2 25.909 28.4836 25.8597
606 2 24.732 29.0908 26.8149
607 1 34.8606 10.3004 12.8735
608 2 34.6489 9.32336 12.8974
609 2 34.2478 10.7895 13.4942
610 1 10.3157 24.5799 6.57007
611 2 9.42999 24.664 7.02652
612 2 10.1735 24.3867 5.59931
613 1 4.30063 0.2853 18.8489
614 2 3.76992 0.99348 19.3145
615 2 4.35052 0.49419 17.8723
616 1 8.41827 15.4893 34.9152
617 2 8.57237 16.1534 34.1836
618 2 8.04251 14.6475 34.5276
619 1 6.19035 7.5403 24.2189
620 2 5.98782 8.51233 24.3376
621 2 6.98218 7.43584 23.6173
622 1 1.08041 14.4101 23.7542
623 2 0.61056 15.0893 23.1903
624 2 0.47286 13.6323 23.9147
625 1 31.6703 8.22586 14.0843
626 2 31.1024 7.76414 14.7656
627 2 31.3715 9.17541 13.9894
628 1 4.32304 13.1668 34.0245
629 2 4.93961 13.8255 33.5934
630 2 3.51145 13.0464 33.4528
631 1 22.6598 11.992 8.47744
632 2 22.5808 11.2041 9.08809
633 2 22.4056 11.721 7.54908
634 1 12.565 8.92537 31.889
635 2 12.9654 8.59761 32.7447
636 2 12.3988 8.14974 31.2802
637 1 7.37183 21.6422 6.22392
638 2 7.16919 22.5593 5.88065
639 2 7.30951 20.9842 5.47358
640 1 27.0076 16.634 8.08993
641 2 26.3961 16.8927 8.83762
642 2 27.4102 15.7392 8.28309
643 1 7.19611 3.79417 31.5933
644 2 7.16103 3.74933 30.595
645 2 8.13759 3.95988 31.8867
646 1 30.1591 16.21 7.44433
647 2 30.1163 17.1663 7.73351
648 2 29.2638 15.9249 7.10209
649 1 10.2167 4.3997 31.8968
650 2 10.6105 4.91898 31.1383
651 2 10.8528 4.40222 32.6683
652 1 27.5058 28.3879 25.6833
653 2 28.388 27.9267 25.7786
654 2 27.5393 29.2713 26.1506
655 1 19.0543 11.8993 31.2665
656 2 18.263 12.047 30.6733
657 2 18.7427 11.613 32.1726
658 1 3.86618 28.0939 13.0187
659 2 4.5119 27.4335 12.6356
660 2 3.79034 28.8801 12.4055
661 1 26.5992 23.3411 29.5581
662 2 25.7885 23.6506 29.0613
663 2 26.802 22.3943 29.3082
664 1 27.6895 7.40971 19.8611
665 2 27.8051 6.60329 20.441
666 2 27.2662 7.14029 18.996
667 1 20.0516 4.56036 1.84594
668 2 19.0942 4.38304 2.07401
669 2 20.4386 5.20207 2.50804
670 1 32.6019 15.4741 21.296
671 2 32.4136 16.4482 21.421
672 2 32.5976 15.017 22.1854
673 1 29.0543 5.06576 32.5329
674 2 28.156 4.90289 32.1248
675 2 28.9849 5.79843 33.2099
676 1 18.3058 3.04311 8.64163
677 2 18.0535 4.01062 8.65401
678 2 17.5227 2.49818 8.34211
679 1 34.7368 1.91251 8.11982
680 2 35.3648 2.28659 7.43753
681 2 34.5957 0.93821 7.94428
682 1 20.9526 29.3086 14.6908
683 2 21.183 28.3408 14.5894
684 2 19.9637 29.4058 14.8027
685 1 31.9052 26.1977 33.545
686 2 32.2867 27.1143 33.4259
687 2 31.8579 25.9804 34.5199
688 1 2.97458 9.05586 14.308
689 2 2.89178 8.93222 13.3192
690 2 2.1365 8.74237 14.7545
691 1 34.2454 3.69756 9.97076
692 2 34.6154 3.02013 9.33498
693 2 33.2468 3.6465 9.96832
694 1 19.8482 0.14555 18.9015
695 2 20.7001 0.66545 18.8386
696 2 19.0709 0.77369 18.8656
697 1 32.2584 30.8373 10.9244
698 2 32.5824 31.7145 10.5704
699 2 32.934 30.4645 11.5604
700 1 27.0178 17.9459 11.2345
701 2 26.8119 18.3764 12.1133
702 2 28.009 17.8924 11.1138
703 1 20.2299 35.2346 14.5869
704 2 20.5785 34.9594 13.691
705 2 20.5243 34.573 15.2766
706 1 28.1369 28.8737 1.33657
707 2 27.464 29.2672 0.71018
708 2 28.9201 28.5356 0.81488
709 1 19.054 9.098 19.79
710 2 18.0544 9.10305 19.8177
711 2 19.3892 10.0341 19.6835
712 1 28.9083 11.6791 7.13534
713 2 29.8078 11.8198 6.72185
714 2 28.3418 11.129 6.52182
715 1 15.6785 27.8009 20.4092
716 2 15.9652 28.5581 19.8224
717 2 16.4414 27.1658 20.5305
718 1 11.4712 8.69 1.78828
719 2 10.6631 9.18052 2.11417
720 2 11.2138 8.08927 1.03142
721 1 35.2891 10.2845 26.215
722 2 35.2112 9.44014 26.7451
723 2 0.39578 10.9186 26.6863
724 1 15.1239 29.335 22.6983
725 2 14.1938 29.7019 22.7156
726 2 15.2104 28.6814 21.9465
727 1 26.3533 6.84545 25.1713
728 2 25.9854 7.64249 24.6924
729 2 26.2323 6.03072 24.6043
730 1 17.8778 33.0786 31.335
731 2 18.2564 33.7849 30.7368
732 2 17.5863 33.4931 32.197
733 1 3.45206 32.2257 21.069
734 2 2.96341 32.5055 20.2427
735 2 3.44745 32.9766 21.7294
736 1 34.6885 28.2416 9.56684
737 2 33.8329 28.24 9.04931
738 2 35.0665 29.1672 9.58322
739 1 11.8363 33.7707 34.9766
740 2 12.7731 33.7672 34.6267
741 2 11.5766 32.8425 35.243
742 1 27.9898 23.6437 17.2866
743 2 27.3134 24.2755 17.6651
744 2 27.8569 22.7358 17.6842
745 1 30.2156 28.5982 35.3208
746 2 31.1366 28.3574 0.17971
747 2 30.1434 28.452 34.3342
748 1 21.8928 27.3711 7.14605
749 2 22.4308 28.043 7.65503
750 2 22.5066 26.7086 6.71689
751 1 1.75662 32.9686 9.6741
752 2 2.22776 33.0896 8.8004
753 2 2.24821 33.4651 10.3895
754 1 0.21094 25.7004 3.19371
755 2 0.74244 26.4322 3.62019
756 2 0.80652 24.9176 3.01303
757 1 13.8938 31.5148 7.21453
758 2 14.5419 30.7575 7.13407
759 2 13.6147 31.8131 6.3018
760 1 1.19622 17.235 10.1721
761 2 1.84313 16.4888 10.329
762 2 1.44494 17.721 9.33431
763 1 26.3963 29.9719 16.7926
764 2 25.56 30.2163 16.3018
765 2 27.0934 30.6706 16.6318
766 1 6.05191 32.3966 30.1851
767 2 6.81186 32.7595 30.7242
768 2 6.40726 31.9692 29.3538
769 1 26.1081 21.6684 1.29484
770 2 25.6712 21.862 2.17324
771 2 25.6023 22.1253 0.56313
772 1 17.4429 21.3049 6.11779
773 2 17.3402 22.2733 6.34498
774 2 17.4229 21.1916 5.12446
775 1 28.415 27.0938 17.1243
776 2 29.3514 27.3283 16.8632
777 2 27.8259 27.1258 16.3169
778 1 31.3042 34.7142 13.4433
779 2 30.9282 34.8748 14.3559
780 2 31.3315 33.7311 13.2623
781 1 17.8319 30.375 2.80681
782 2 18.7793 30.6176 2.59797
783 2 17.2144 30.9608 2.28189
784 1 21.2136 4.88439 14.5606
785 2 21.2887 5.64522 15.2051
786 2 20.9512 5.23403 13.6612
787 1 2.5816 4.47678 29.5795
788 2 1.78431 3.98285 29.2326
789 2 3.10038 3.88258 30.1941
790 1 13.9993 19.8214 25.1909
791 2 13.523 20.1205 26.0178
792 2 14.9724 20.0377 25.2701
793 1 31.2357 21.2743 20.2144
794 2 30.9882 22.0369 19.6169
795 2 31.7745 21.6156 20.9847
796 1 5.98967 23.6122 29.5051
797 2 6.977 23.4544 29.4888
798 2 5.74003 24.2384 28.7665
799 1 34.9795 3.70445 28.2189
800 2 34.3491 2.94118 28.0778
801 2 0.32312 3.53113 27.7214
802 1 23.9076 26.4071 10.4325
803 2 23.1449 27.0504 10.4973
804 2 24.6343 26.8069 9.87378
805 1 24.6636 14.214 8.75088
806 2 25.5581 13.8014 8.57868
807 2 23.9442 13.5608 8.51463
808 1 26.762 32.3289 18.5948
809 2 27.0498 33.2528 18.3429
810 2 25.7663 32.2611 18.5321
811 1 15.816 4.45782 25.2906
812 2 15.0001 4.36334 24.7202
813 2 16.0725 5.4226 25.3482
814 1 19.1822 10.0636 23.182
815 2 18.8061 10.7129 23.8429
816 2 20.1556 10.2499 23.0486
817 1 16.9208 8.8093 1.39624
818 2 17.4855 8.4771 0.64076
819 2 16.0123 8.39523 1.34044
820 1 22.4016 16.2966 33.0833
821 2 21.6392 15.719 32.7916
822 2 22.9497 15.8075 33.7617
823 1 8.68261 34.4883 6.98529
824 2 9.60677 34.4336 7.36327
825 2 8.71088 34.2897 6.00564
826 1 23.9514 6.8044 13.7063
827 2 24.0139 5.80664 13.684
828 2 24.0412 7.12303 14.6499
829 1 9.01439 30.1279 34.4153
830 2 8.30096 29.4278 34.3863
831 2 9.71944 29.9135 33.7394
832 1 26.4503 33.553 7.08366
833 2 25.7821 32.9395 6.66283
834 2 26.5013 33.3676 8.06498
835 1 30.888 23.1881 18.3969
836 2 29.9333 23.2401 18.1038
837 2 31.4827 23.1684 17.5932
838 1 10.5281 12.5427 34.9039
839 2 11.4453 12.1485 34.9606
840 2 10.4667 13.333 0.06628
841 1 3.63801 19.4363 9.70987
842 2 2.97661 19.2289 8.98912
843 2 4.55252 19.5095 9.31205
844 1 24.5517 32.703 5.53394
845 2 25.1063 32.3398 4.78533
846 2 23.6566 32.2572 5.53235
847 1 11.8105 0.45139 5.96055
848 2 11.3907 35.3972 6.67428
849 2 12.7846 0.56502 6.1559
850 1 7.05422 31.9291 0.30939
851 2 7.50991 32.8192 0.32211
852 2 7.60255 31.2815 35.2276
853 1 4.88099 2.44705 3.21183
854 2 5.10191 2.23231 4.16317
855 2 5.196 3.37148 2.997
856 1 7.47945 15.1537 10.2937
857 2 7.03313 15.9325 10.7343
858 2 7.09594 15.0231 9.37947
859 1 6.26659 26.9048 24.5466
860 2 5.54453 27.0407 25.2249
861 2 6.35642 27.7278 23.9859
862 1 7.15187 18.2012 25.545
863 2 6.48538 17.8544 26.2049
864 2 7.52394 17.4392 25.0151
865 1 15.2381 32.9177 4.26238
866 2 14.282 32.8676 4.55117
867 2 15.3235 32.5663 3.33007
868 1 13.9004 29.6976 15.3253
869 2 14.4824 29.0554 14.8264
870 2 13.2193 29.1897 15.8527
871 1 0.23593 14.7799 15.9934
872 2 35.1615 14.0013 16.2308
873 2 35.189 15.6124 15.9663
874 1 9.98786 25.2309 12.2694
875 2 10.0291 26.1085 11.7917
876 2 10.1893 25.3695 13.239
877 1 21.4598 13.2046 15.0142
878 2 21.8264 13.135 14.0864
879 2 20.4849 12.9824 15.0048
880 1 31.108 22.9998 9.65674
881 2 30.3688 23.5231 10.0807
882 2 31.9871 23.414 9.89228
883 1 13.2561 9.90592 3.33739
884 2 13.7086 10.6761 2.88796
885 2 12.6201 9.47384 2.69813
886 1 10.3031 4.65218 17.6409
887 2 10.4697 4.28256 18.555
888 2 11.1625 4.67871 17.1303
889 1 28.8777 21.4769 33.7521
890 2 28.5967 20.7774 34.4092
891 2 28.6474 21.1765 32.8266
892 1 17.6865 22.5277 26.0569
893 2 18.4054 23.2214 26.0134
894 2 17.6662 22.1256 26.9723
895 1 35.3286 15.3587 21.6092
896 2 34.3713 15.4132 21.3256
897 2 0.36572 14.9561 20.8726
898 1 34.8136 9.91603 7.88012
899 2 34.3464 10.3827 7.12917
900 2 34.394 10.1796 8.74872
901 1 25.9882 17.7283 34.7682
902 2 25.4616 18.4288 34.2867
903 2 25.3829 16.9759 35.0277
904 1 1.10644 14.4472 19.2887
905 2 1.56807 13.6924 19.7547
906 2 1.73043 14.8613 18.626
907 1 23.0703 7.39359 29.7249
908 2 22.6209 7.30025 28.8365
909 2 23.2405 6.48626 30.1093
910 1 10.5232 33.0545 2.56148
911 2 10.8235 34.0011 2.44456
912 2 10.8667 32.4999 1.80358
913 1 32.8803 27.8682 13.0465
914 2 33.4697 28.544 12.6039
915 2 33.1268 26.9524 12.7293
916 1 28.8638 12.2167 3.75354
917 2 28.5677 11.4928 4.37666
918 2 28.2384 12.2625 2.97467
919 1 23.1212 7.48978 34.393
920 2 23.051 7.80962 35.3379
921 2 23.9431 6.92935 34.291
922 1 23.0492 24.1221 3.43733
923 2 23.2165 24.959 3.95832
924 2 22.4322 23.5267 3.95201
925 1 32.9267 24.0076 30.5699
926 2 33.7188 24.5505 30.849
927 2 32.1199 24.5962 30.5206
928 1 3.45535 11.7457 10.9322
929 2 2.6181 11.8489 11.4691
930 2 4.12115 12.4352 11.2172
931 1 18.0306 4.40786 5.24725
932 2 18.5184 3.54031 5.15058
933 2 17.1314 4.24134 5.65181
934 1 21.9178 10.6753 23.0074
935 2 21.5002 11.4711 23.4458
936 2 22.9114 10.7864 22.9917
937 1 27.4317 31.4869 23.761
938 2 27.7824 32.2463 23.213
939 2 28.1968 30.9914 24.1722
940 1 31.1332 15.0473 2.15137
941 2 31.3935 14.2564 2.70508
942 2 30.5585 15.6596 2.69426
943 1 26.4828 26.4616 29.2332
944 2 26.2999 27.3788 29.5872
945 2 25.6207 25.9652 29.1326
946 1 31.2217 24.178 24.5874
947 2 31.237 25.1409 24.3183
948 2 31.4466 23.6076 23.7975
949 1 2.23033 8.39736 11.7015
950 2 2.21591 7.43318 11.9664
951 2 1.68011 8.52458 10.8763
952 1 10.3035 13.6936 7.45075
953 2 9.95467 13.2034 6.65202
954 2 11.018 14.3318 7.16427
955 1 19.0962 27.271 33.9641
956 2 18.2876 27.5888 33.4691
957 2 19.4026 27.9839 34.5948
958 1 21.984 20.9158 33.6059
959 2 22.1193 21.6603 32.9521
960 2 21.8719 21.2951 34.5244
961 1 8.05909 10.6132 31.6564
962 2 8.44206 9.70136 31.8045
963 2 7.46372 10.5982 30.8531
964 1 9.09413 18.3234 0.84811
965 2 9.41231 18.0045 1.74088
966 2 8.81473 17.5391 0.29424
967 1 13.2557 25.9706 14.2152
968 2 13.5582 26.216 15.1362
969 2 12.3302 25.5942 14.2576
970 1 33.1358 9.19316 24.0583
971 2 32.6303 9.79659 23.4416
972 2 34.1159 9.27845 23.8788
973 1 0.58676 30.7964 7.10521
974 2 0.12738 30.9342 7.98267
975 2 1.25039 30.0531 7.1895
976 1 16.6085 24.0069 6.45844
977 2 16.7408 24.601 5.66503
978 2 16.7395 24.5362 7.2967
979 1 21.7827 18.2349 15.2983
980 2 21.2921 17.365 15.2477
981 2 21.4758 18.7444 16.1021
982 1 1.07556 17.9078 22.5015
983 2 0.66446 17.0956 22.0875
984 2 2.00753 18.0218 22.1574
985 1 8.51481 8.69543 13.4458
986 2 8.0332 7.99947 12.9132
987 2 8.13923 9.59736 13.2326
988 1 28.3522 22.6756 2.57766
989 2 27.7287 22.2876 1.89891
990 2 28.7605 21.9378 3.11531
991 1 17.1518 8.01186 31.3361
992 2 16.7789 8.44369 32.1574
993 2 16.9633 8.5887 30.5414
994 1 29.3714 32.283 30.4077
995 2 28.5999 31.7782 30.7948
996 2 29.3414 32.2239 29.4099
997 1 35.301 34.4961 31.3106
998 2 0.55375 34.8382 31.8645
999 2 34.4501 34.9292 31.6076
1000 1 14.0994 2.13015 18.0901
1001 2 13.8646 1.50779 17.3434
1002 2 14.0771 1.63332 18.9576
1003 1 23.7481 3.68755 32.9567
1004 2 23.657 3.88556 31.9808
1005 2 22.87 3.83831 33.4108
1006 1 31.1 21.5667 28.0756