ITEM: TIMESTEP
0
ITEM: NUMBER OF ATOMS
4500
ITEM: BOX BOUNDS
0.000000 36.240381
0.000000 35.404532
0.000000 34.965695
ITEM: ATOMS id type x y z vx vy vz mass
1034 2 4.605650 3.160390 5.554870 -0.000495844 0.00093813 0.000704396 15.9994
1033 1 5.350170 3.464520 4.950340 -0.00288644 -0.012386 0.00154176 1.00794
2648 2 1.606420 3.147880 4.053710 -0.00383222 0.00266252 -0.0011199 15.9994
2647 1 1.634830 4.119660 3.728680 0.0168952 -0.00134068 0.0169058 1.00794
2649 2 2.403070 4.237620 3.104280 0.0046635 -0.0026788 0.000308936 15.9994
3163 1 1.733440 1.347810 4.326690 -0.0151217 -0.00745955 -0.0113407 1.00794
3164 2 1.409250 1.203730 5.284670 0.00368989 0.000588533 0.00647138 15.9994
2070 2 4.552930 5.184920 4.360620 -0.00180313 -0.000856034 0.00914 15.9994
161 2 3.721500 1.720720 1.585720 -0.00619892 0.00174281 0.00412515 15.9994
160 1 3.079310 1.743510 0.792059 -0.00128664 -0.00638476 -0.00464539 1.00794
2223 2 5.612900 2.126530 3.641150 0.00229254 0.00116606 -0.00151472 15.9994
4039 1 3.032600 5.589450 1.775120 0.0221112 -0.017586 0.00514283 1.00794
1553 2 0.733693 0.878865 2.577880 0.00734872 0.0011874 0.00274574 15.9994
2221 1 5.110360 1.525210 2.990370 0.0105462 -0.00135937 0.00439414 1.00794
2517 2 1.250340 5.768480 3.835800 0.00511537 -0.00332485 0.00814995 15.9994
299 2 0.202801 0.697284 7.113040 0.00246335 -0.00214787 -0.00206247 15.9994
2383 1 3.316890 2.953360 6.997930 -0.000939182 0.0080522 -0.00188989 1.00794
3165 2 2.038650 0.485563 3.933250 0.00213766 -0.000175435 -0.000336896 15.9994
2222 2 5.050320 0.555910 3.298900 -0.00173884 -0.0072219 -0.000726971 15.9994
3149 2 2.893860 5.843470 6.178170 -0.00539802 -0.000556499 -0.00159912 15.9994
2385 2 2.560240 2.309990 6.900480 -0.00104252 0.000207331 -0.00344755 15.9994
1552 1 -0.052606 0.983453 1.992740 0.00671557 -0.0033444 0.00761424 1.00794
4041 2 2.489190 5.039660 1.143760 -0.00118907 0.00425052 -0.00435423 15.9994
2255 2 5.289840 3.784430 1.203100 0.00415325 0.00336553 -0.00491006 15.9994
3090 2 2.089580 3.209460 0.509362 0.00102575 0.00585902 -0.00346639 15.9994
1035 2 6.065600 3.828540 5.574270 0.00144168 0.00190813 -0.00374906 15.9994
2091 2 7.741970 4.858710 6.374130 -0.00540166 -0.00558719 0.0024364 15.9994
2089 1 6.998790 4.404190 6.894570 0.00511326 0.0022018 0.00216287 1.00794
1608 2 7.536860 1.765540 3.940860 -0.00214526 0.00337772 -0.00112293 15.9994
1606 1 8.118770 2.540720 3.713220 -0.00287912 -0.00222405 0.00432815 1.00794
2904 2 10.190400 3.082910 6.486280 0.00441273 -0.00513492 0.00496296 15.9994
1607 2 8.820860 2.709740 4.428820 -0.00520709 -0.00270829 0.00399315 15.9994
2902 1 10.337200 3.361180 5.508520 -0.0168989 -0.00778595 -0.00823997 1.00794
447 2 8.552670 4.057000 2.956430 0.000564832 0.00292586 -0.00224185 15.9994
2256 2 6.777060 3.484600 1.894250 0.00133169 -0.00217493 0.00076858 15.9994
1618 1 7.679700 1.808070 6.921460 -0.00275127 -0.00646771 0.00459384 1.00794
2501 2 9.619730 4.968930 5.652990 0.00413994 -0.0029474 -0.00143112 15.9994
2500 1 9.030860 5.793010 5.709090 0.00770404 -0.00547652 -0.0106276 1.00794
446 2 9.512600 5.178940 2.243630 0.00100061 0.000376149 0.00596101 15.9994
445 1 8.550200 4.882520 2.379030 -0.00440974 0.0253207 -0.0145634 1.00794
2903 2 10.931500 2.675670 5.084270 -0.00130274 -0.000957355 0.0021211 15.9994
3513 2 11.000100 2.370500 2.042340 0.000601092 0.00320816 -0.00582615 15.9994
4289 2 11.567200 4.455590 2.439360 0.00647205 0.00570439 0.00656599 15.9994
4288 1 11.418600 5.441270 2.614250 -0.0147262 0.00592456 0.010343 1.00794
2254 1 6.259130 3.574860 1.028290 -0.0147317 -0.0100449 0.00125456 1.00794
576 2 8.264130 0.445754 5.869330 -0.00285914 0.000427808 -0.00179724 15.9994
338 2 7.454820 5.961880 1.479710 -0.00468984 0.00369294 0.000230756 15.9994
1620 2 7.399800 2.791410 6.883670 0.00259526 -0.00249992 -0.00204174 15.9994
62 2 9.838390 0.620502 0.477944 0.00472984 -0.00321528 0.00507151 15.9994
741 2 11.242900 0.147892 6.483110 0.00616012 0.000571392 0.00454937 15.9994
740 2 11.529500 0.633002 4.923320 0.00648156 0.00136994 -0.00501386 15.9994
61 1 9.715840 1.183100 1.326350 -0.00931465 -0.0190127 0.00879867 1.00794
1895 2 10.200400 0.529214 2.858310 0.000695696 0.00567694 -0.00507296 15.9994
63 2 8.762150 1.159330 1.614900 -0.00188971 -0.00229071 -0.000507417 15.9994
2348 2 6.412180 2.212670 0.490834 0.0020083 0.00163223 -0.000416724 15.9994
1894 1 10.273100 0.388146 3.859480 0.0126694 -0.00802499 0.000502452 1.00794
2453 2 14.588500 3.157920 6.818350 -0.00551282 0.00439486 -0.000629081 15.9994
2452 1 13.933300 2.970770 6.063520 -0.0147319 0.0204234 0.00869853 1.00794
3511 1 11.830300 2.928990 2.025820 0.0052672 -0.00478913 0.0215581 1.00794
932 2 15.262200 4.196490 3.010820 -0.000636345 0.00209406 0.00379432 15.9994
931 1 15.520800 5.175170 3.078290 0.0109545 0.00702562 0.0159404 1.00794
933 2 16.240300 5.386220 2.367630 0.00229155 0.0103904 -0.000577943 15.9994
649 1 14.963900 2.279230 3.204300 0.00826404 -0.00746868 0.0141106 1.00794
650 2 14.693900 1.846570 2.353840 0.00164632 -0.00491477 -0.0015647 15.9994
3512 2 12.488300 2.321680 1.596110 -0.00588192 0.00495225 -0.00770431 15.9994
651 2 14.211100 2.173410 3.856170 -0.00257331 0.0055613 -0.00492637 15.9994
4425 2 14.281700 5.510460 4.183400 -0.0018761 -0.00477893 0.000581498 15.9994
4290 2 11.867100 5.659860 3.489590 0.000989381 -0.00074655 -0.00475175 15.9994
4423 1 13.455000 5.423260 4.742170 -0.00170421 0.0127758 0.00645616 1.00794
4424 2 13.677700 4.582350 5.261020 -0.00602919 -0.00256074 0.00119451 15.9994
2454 2 13.204600 2.447180 6.521900 -0.00410996 -0.000517015 0.00288337 15.9994
1196 2 15.055400 4.925250 0.284204 0.0033191 -0.00012789 0.00289177 15.9994
3160 1 17.596700 4.944880 1.152720 -0.008661 0.00298847 0.00482755 1.00794
2977 1 17.670000 2.463940 2.298240 -0.0032037 0.0121711 -0.000380784 1.00794
739 1 11.922900 0.571641 5.863890 0.00815252 -0.00257749 -0.00280306 1.00794
2978 2 17.640800 1.833310 1.504170 0.00299844 -0.00603277 0.00168277 15.9994
3130 1 13.897300 0.992593 1.145370 0.000212627 -0.00570674 0.00115156 1.00794
2979 2 16.778500 2.462570 2.776360 0.00069626 -0.00501395 -0.00691661 15.9994
3132 2 13.870100 0.244277 1.814940 -0.0115073 0.000296107 -0.00343928 15.9994
2069 2 3.647880 6.141430 3.526700 0.0001059 0.00465672 -0.00149531 15.9994
2068 1 4.320050 6.161820 4.266490 -0.00589921 -0.00227213 -0.00316314 1.00794
4238 2 0.148076 7.212860 1.788280 0.000500727 0.00420644 -0.00434552 15.9994
1478 2 0.159415 10.696700 2.760910 -0.00448487 0.000433416 -0.00175576 15.9994
2448 2 2.675930 9.312360 2.140080 -0.000614483 0.00218515 -0.00265436 15.9994
2225 2 1.749870 10.163600 4.148170 0.000323593 0.000771987 -0.00266374 15.9994
2226 2 1.130220 8.648670 3.684440 -0.00474637 -0.00358326 -0.00369872 15.9994
2224 1 1.314900 9.612320 3.398850 -0.00228719 -0.00778154 0.00612833 1.00794
2516 2 0.613976 6.798290 4.940950 -0.00108357 -0.00049563 0.0033454 15.9994
2515 1 0.954667 6.723900 3.998610 -0.0153047 -0.00036949 0.000841655 1.00794
2446 1 3.459680 9.528070 1.545330 -0.0145739 -0.00609854 -0.00118222 1.00794
1970 2 4.914360 11.158100 1.128740 0.00938523 -0.00686145 0.00105909 15.9994
4405 1 2.564670 11.407500 5.159920 -0.00613305 0.00968477 -0.00203536 1.00794
4406 2 2.138240 11.576100 6.040200 -0.00772626 0.00432643 -0.000892777 15.9994
2190 2 3.529540 10.050800 5.664500 0.000676103 -0.0013718 0.00700299 15.9994
2447 2 3.825620 8.668410 1.178930 0.000284355 0.00313687 -0.00473531 15.9994
1969 1 5.687530 11.695200 0.724386 0.00683823 0.00835904 -0.00765917 1.00794
3148 1 2.367070 6.012290 7.012830 0.00395322 0.0375039 -0.0155693 1.00794
2189 2 5.059880 9.444490 5.774490 -0.00581224 -0.000714133 -0.00182403 15.9994
3150 2 1.412570 6.067270 6.743350 -0.00455834 -0.00792341 -0.00465447 15.9994
479 2 4.074530 8.287080 7.258780 0.00386229 0.00537118 0.00636517 15.9994
2188 1 4.136930 9.444500 6.219870 0.000705365 0.00168777 -0.00377733 1.00794
4040 2 3.506460 6.266050 1.175800 -0.00622982 0.000354939 -0.00551238 15.9994
3946 1 4.450070 7.232220 0.412451 -0.00611341 -0.00506014 0.000165404 1.00794
3948 2 5.279510 6.756260 0.675495 0.00322441 0.0044275 -0.000487292 15.9994
2502 2 8.820420 6.126140 4.783140 -0.00133768 -0.000548538 0.00478037 15.9994
3828 2 9.979970 6.866390 6.755810 -0.00127795 0.00278499 -0.00599663 15.9994
1154 2 6.117540 7.174540 3.944670 0.00470158 -0.000577951 -0.000769214 15.9994
1153 1 6.912030 7.765350 3.858980 -0.000476895 0.0118771 -0.00816633 1.00794
1155 2 6.689640 8.666020 4.245210 -0.00267551 0.00214591 -0.00108267 15.9994
2163 2 9.567780 10.628700 5.453680 0.000185167 0.00044782 0.00400527 15.9994
4105 1 6.782030 10.066000 5.045060 -0.00103906 -0.00961324 -0.00110129 1.00794
4107 2 6.922240 10.502200 4.140420 0.000637886 -0.00202326 -0.00648894 15.9994
4106 2 7.389440 10.491400 5.776530 -8.20063e-05 0.00196841 -0.00634109 15.9994
2162 2 10.213000 11.117100 4.138710 0.00529005 -0.00248395 0.000355698 15.9994
2161 1 10.154000 10.312600 4.695470 0.0124169 -0.0157722 0.017222 1.00794
720 2 8.609200 8.011940 3.736120 0.000297295 -0.00235685 -0.00324021 15.9994
719 2 9.903430 8.977970 3.929220 0.00251839 0.00113787 3.68426e-05 15.9994
718 1 9.596710 8.136230 3.471820 0.00942689 -0.018004 0.0195272 1.00794
885 2 10.685800 8.035110 2.003010 0.00515443 -0.00576581 0.00212954 15.9994
10 1 8.288740 11.052500 0.721884 0.00132246 -0.000494601 0.00149414 1.00794
883 1 11.305100 7.848680 1.230520 -0.00970323 0.00304578 -0.0142331 1.00794
884 2 11.545300 6.876680 1.346280 -0.00863045 0.00211207 0.00010938 15.9994
3152 2 11.573000 8.062690 3.981730 -0.000925897 0.00653587 -0.00514109 15.9994
11 2 7.306390 11.272400 0.870604 -5.95824e-05 0.00602511 0.00266547 15.9994
3883 1 8.314240 11.668600 6.561950 0.00623254 0.00479068 -0.0205903 1.00794
339 2 7.169590 7.423020 2.033190 -0.00348409 -0.00297612 0.00148949 15.9994
337 1 7.267190 6.903340 1.175070 0.0016451 0.0036089 -0.0124895 1.00794
3884 2 9.051140 11.392000 7.200940 0.000819522 -0.00252669 -0.0134501 15.9994
600 2 10.147300 11.513700 0.482068 -0.00195547 -0.000628586 -0.000601202 15.9994
1892 2 15.260000 6.296250 6.449310 -0.00232243 -0.00340238 -0.00290608 15.9994
2124 2 17.729800 11.034700 1.772120 -0.00326154 0.00390368 -0.00665057 15.9994
3392 2 12.636200 10.418100 5.063180 -0.00640918 0.00405786 0.00232836 15.9994
1794 2 13.925700 8.096720 7.203610 0.00786144 0.00333911 0.00978993 15.9994
3393 2 13.294200 9.853750 6.357980 0.00478757 -0.00250823 0.00418138 15.9994
3391 1 13.356400 10.614200 5.722250 -0.00090958 0.00662932 -0.00198032 1.00794
1891 1 15.259300 7.301890 6.435930 -0.00345209 0.0129947 -3.44873e-05 1.00794
1829 2 14.725700 10.081000 5.165750 -0.0108348 0.00013242 0.00292442 15.9994
1828 1 15.431700 9.712760 4.537700 -0.00138528 -0.0068919 -0.0129913 1.00794
1830 2 14.945900 9.555960 3.659450 0.000720474 -0.000585687 -0.00381508 15.9994
1893 2 15.415000 7.621140 5.484170 0.000380498 -0.000408643 -0.00217918 15.9994
3151 1 12.512500 7.980550 4.333130 0.00605563 0.000227592 -0.00852003 1.00794
3153 2 12.673900 7.025030 4.668680 0.00165263 -0.000511194 -0.00241538 15.9994
4230 2 13.471400 8.357840 2.746360 -0.00382122 -0.00317959 0.00179784 15.9994
4228 1 14.161300 8.635140 2.087090 0.00755134 -0.0161988 -0.00122967 1.00794
2582 2 15.957100 8.152120 1.875890 -0.0014489 0.00772728 -0.00503139 15.9994
4229 2 13.720900 8.540990 1.186850 -0.0012795 -0.00331149 -0.00477757 15.9994
555 2 17.073400 9.452720 4.932750 0.00374826 0.00377222 -0.0003729 15.9994
240 2 16.518400 11.214600 3.857990 -0.00219528 -0.00666433 -0.00658689 15.9994
2581 1 16.951400 8.096820 1.886700 0.000297101 0.0116842 0.00934437 1.00794
238 1 17.114200 11.826100 3.313150 -0.00659021 -0.0102021 -0.00435529 1.00794
2583 2 17.249100 7.458860 1.152860 -0.00143202 -0.00465779 0.0014601 15.9994
4264 1 4.918550 14.075400 5.572060 -0.00615078 0.00843368 0.00397499 1.00794
4407 2 2.458200 12.255800 4.635840 0.00453911 0.00474745 0.000644329 15.9994
4266 2 5.366130 13.544400 6.307710 -0.0010465 0.00240307 0.004403 15.9994
1968 2 0.764259 17.696100 6.975170 -0.000895476 -0.00513272 0.00158421 15.9994
1590 2 0.964334 12.867100 1.104130 -0.00405521 0.00469635 -0.00481445 15.9994
1588 1 1.175540 13.721600 0.623618 0.0303661 -0.00149572 -0.0155916 1.00794
3956 2 2.750360 14.629500 6.193570 -0.00569462 -8.16454e-05 0.000619672 15.9994
3955 1 1.786230 14.439600 6.024450 -0.0121153 0.00745942 -0.0191618 1.00794
1557 2 4.469780 15.553200 1.002190 -0.00708967 -0.00346978 -0.00109706 15.9994
1764 2 0.369611 15.074000 5.222070 0.00199493 0.00263056 -0.000197461 15.9994
3666 2 4.352960 15.415100 4.775590 0.00318181 -0.00781662 -0.00665508 15.9994
2370 2 2.670160 14.183000 0.334592 0.00104421 0.00641256 -0.00124948 15.9994
3008 2 2.701380 16.929500 2.268430 -0.00509032 0.000191949 0.0048715 15.9994
3664 1 3.994140 16.101700 4.119920 0.00433016 0.00218345 0.00114276 1.00794
1967 2 1.691360 16.269800 6.928910 0.000384748 0.0010633 0.00174647 15.9994
4265 2 4.829740 13.501600 4.745060 -0.00404627 0.00188452 -0.000309541 15.9994
1556 2 4.561820 16.347000 2.497750 -0.00650184 0.00116106 0.00547558 15.9994
1555 1 5.005650 16.202200 1.583050 -0.00395379 -0.0103119 0.0129559 1.00794
3957 2 1.404660 14.021700 6.867490 0.00204183 -0.00675937 -0.00311457 15.9994
900 2 4.950990 16.258100 6.896920 0.00198008 -0.00274064 0.000676327 15.9994
3665 2 3.664260 16.917300 4.632740 -0.00138509 0.00335837 -0.00391843 15.9994
954 2 8.477080 11.961100 2.278210 0.00487726 0.0023903 -0.00444171 15.9994
599 2 11.650100 12.206500 0.753147 -0.000754101 0.00802032 -0.000924784 15.9994
952 1 8.624820 12.501700 3.106490 0.0122274 0.00834385 -0.0205413 1.00794
953 2 7.767410 12.949900 3.361790 0.00699966 -0.00484707 -0.00791196 15.9994
2852 2 6.116930 12.883800 2.031650 0.00590887 0.00111139 0.00168645 15.9994
2592 2 6.693310 16.220000 1.647630 -0.00371594 -0.00813053 -0.00584185 15.9994
2590 1 7.634220 15.855000 1.686150 0.0121679 0.0118765 0.00217444 1.00794
1583 2 8.553350 16.327300 3.215440 0.00422431 0.00650197 0.000238913 15.9994
2853 2 5.930150 14.434100 2.560670 0.00440671 0.00484118 -0.00292343 15.9994
2851 1 6.139540 13.481100 2.856780 0.0124694 0.00254248 0.000963762 1.00794
1582 1 9.176570 16.741000 3.885520 0.0212706 0.00967153 -0.0148991 1.00794
1584 2 9.872900 16.029900 4.099300 0.00355411 0.00284333 0.00310448 15.9994
858 2 11.662200 16.785300 6.002080 0.00409594 0.0025765 -0.00173927 15.9994
318 2 9.716550 13.523000 4.184340 -0.00328988 -0.00312766 -0.00133788 15.9994
2591 2 8.052430 16.093400 0.818525 0.00651746 -0.00123138 -0.0029784 15.9994
316 1 10.287900 14.259200 4.555820 0.00623036 -0.00543518 -0.0122097 1.00794
856 1 11.693900 16.968200 7.000790 -0.000129402 -0.00512852 -0.00577782 1.00794
898 1 5.834120 16.435000 6.461480 -0.00246745 -0.00403043 0.00680427 1.00794
899 2 6.258570 15.539300 6.202050 0.00171262 -0.00282125 0.00262661 15.9994
317 2 10.894400 13.797700 5.211200 0.00465376 -0.00208879 -0.00026826 15.9994
3885 2 7.707760 12.301800 7.027780 -0.000792967 0.00047015 -0.00521879 15.9994
965 2 6.580780 17.680900 6.905410 0.0048734 0.00230887 -0.00455488 15.9994
857 2 12.274900 17.779300 7.220210 -0.00618329 0.00218957 -0.0034393 15.9994
507 2 12.944400 12.414100 5.760060 0.00223457 -0.00272798 0.00173866 15.9994
239 2 16.548900 12.263800 2.626410 -0.000477723 0.00259676 -0.00205002 15.9994
506 2 12.554500 13.786100 6.559310 0.00174997 -0.00139211 0.00161247 15.9994
264 2 16.364800 14.291600 1.824380 -0.00118397 0.00141827 -0.0038112 15.9994
505 1 12.249600 13.141500 5.847510 0.00896556 0.0162614 -0.00147436 1.00794
4175 2 14.210700 13.118300 2.186340 -0.00433176 0.00415544 -0.00250158 15.9994
1222 1 12.317300 13.602700 2.528470 0.00404488 -0.00400119 0.0230431 1.00794
1224 2 11.890100 14.088400 3.305890 -0.000727927 0.00913713 0.000996289 15.9994
1271 2 17.650900 14.414300 4.733530 0.00519658 -0.000548038 -0.00235671 15.9994
1270 1 17.319800 15.353200 4.600600 0.0200105 -0.00138611 -0.0155052 1.00794
1272 2 16.834200 15.427200 3.723050 -0.00406093 -0.00328359 -0.00187966 15.9994
1223 2 12.313600 14.203900 1.743970 0.00319162 -0.00255671 0.00420422 15.9994
4494 2 16.112700 16.651500 1.077790 -0.000915309 0.00516011 0.00105289 15.9994
4174 1 15.080100 13.164700 1.687140 0.00125699 -0.00367617 -0.00384875 1.00794
262 1 16.911600 15.111800 2.048030 -0.00641214 -0.0044818 -0.0204296 1.00794
4176 2 14.841600 13.125400 0.674788 0.00230725 -0.0052096 -0.00660761 15.9994
3000 2 12.142600 15.731600 0.280073 -0.00139792 0.00167959 0.0038711 15.9994
2683 1 12.855200 17.362300 0.483071 0.000210997 0.00745284 0.0177861 1.00794
3419 2 16.980600 15.762400 6.172200 -0.012116 0.000647984 0.00756816 15.9994
3418 1 16.761400 16.088200 7.080430 0.00584667 0.0155367 0.0063145 1.00794
1400 2 17.075500 12.307000 6.967530 0.00783697 0.00158596 0.000611063 15.9994
1586 2 11.767700 17.665900 1.905790 0.00237943 0.00284938 0.00169552 15.9994
2685 2 13.848300 17.293500 0.678009 -0.000382225 0.000682001 -0.00676344 15.9994
4492 1 15.557700 17.371300 0.655969 -0.0107996 0.00602901 -0.00284475 1.00794
300 2 1.267250 0.782334 8.308300 -5.97208e-05 0.00922498 -0.00129039 15.9994
608 2 1.463920 5.770180 12.755700 0.00220997 -0.00410743 0.00297051 15.9994
2384 2 3.014730 3.531850 7.790760 0.000339043 -0.0032437 -1.64133e-05 15.9994
380 2 1.254450 3.242750 9.429880 -0.00218973 0.00228424 -0.00493639 15.9994
1158 2 3.251260 2.977660 10.028500 0.00261737 -0.00330121 0.000582542 15.9994
1156 1 4.038200 2.454400 10.380700 -0.0100807 0.0175154 0.00675335 1.00794
379 1 2.061590 3.754640 9.141750 -0.00581089 -0.00353013 -0.0166505 1.00794
381 2 1.748760 4.570470 8.606440 -0.0079273 1.20995e-05 -0.00208359 15.9994
1157 2 4.577150 3.167600 10.842800 -0.00558822 0.00356753 0.000443168 15.9994
1686 2 4.938870 4.556170 13.424800 -0.00263306 0.00242341 -0.0101803 15.9994
1684 1 4.690740 4.167030 12.519000 0.00139476 0.00014711 -0.00571479 1.00794
1685 2 4.467450 3.210120 12.659800 0.00166426 0.00218952 0.000985468 15.9994
298 1 1.135340 1.065680 7.330580 0.0206378 -0.0101827 -0.0184203 1.00794
3332 2 5.016350 1.283170 10.933500 -0.00228504 0.00519734 -0.00475745 15.9994
2981 2 0.563666 0.726223 12.683800 -0.000405784 0.00404455 0.00707931 15.9994
4082 2 2.716910 1.432170 10.030700 -0.00294631 -0.000647115 0.0050265 15.9994
4248 2 1.774560 3.432900 14.033700 -0.00728794 -0.00104428 -4.26897e-05 15.9994
4246 1 0.829787 3.745040 13.957000 -0.0130408 -0.0188101 0.0203951 1.00794
4083 2 1.903790 0.332040 10.789200 -0.00310706 -0.00254378 -0.000287858 15.9994
4081 1 1.916970 0.818416 9.906520 0.00779751 0.00164103 -0.00266207 1.00794
2090 2 6.590730 5.083420 7.557080 -0.00467847 -0.00671863 0.00595117 15.9994
4108 1 6.767180 5.328600 11.047000 0.00644991 -0.0206946 -0.00548634 1.00794
4109 2 5.837500 5.067260 11.394200 -0.00337695 -0.00290586 -0.00136664 15.9994
3670 1 6.174870 1.069540 13.905100 -0.0136677 -0.00943383 -0.00282809 1.00794
1619 2 6.967130 1.314770 7.429060 0.00217778 -0.00721691 0.00558896 15.9994
2532 2 6.250660 5.661140 9.499620 0.00172292 0.00304014 0.00593604 15.9994
4110 2 7.399790 4.993380 11.735300 0.00271824 0.00140027 0.002302 15.9994
3333 2 5.988920 0.610904 12.153100 0.00140052 0.00902697 -0.000674432 15.9994
4051 1 10.343800 2.450640 8.021630 0.0142813 0.00127639 0.00834882 1.00794
4052 2 9.684350 1.738980 7.723420 0.00379602 0.00653807 0.000322164 15.9994
4053 2 9.771830 3.197180 8.363980 -0.0027405 0.00115833 0.000809537 15.9994
89 2 8.168400 4.827550 9.568820 -0.00294538 0.0104765 0.00561167 15.9994
88 1 9.142730 4.759440 9.317460 -0.00623385 -0.0109329 -0.00676442 1.00794
3138 2 8.867930 1.898650 10.935700 0.00589402 0.00198035 0.00187115 15.9994
1225 1 8.270830 4.300920 13.211300 -0.00233033 0.00172643 0.0079194 1.00794
90 2 9.657710 5.395640 9.920890 0.000729339 -0.00168062 -0.00658617 15.9994
3768 2 10.892600 3.443440 12.428700 -0.00171314 0.00149782 -0.00105841 15.9994
3767 2 9.405300 3.722470 11.858100 0.000114322 -0.00480304 0.000377115 15.9994
3766 1 10.217000 3.174830 11.708700 0.0122797 0.00128123 -0.0110985 1.00794
1227 2 8.987140 4.695000 13.796100 0.00531203 -0.00215849 -0.00204039 15.9994
3331 1 5.774570 0.614138 11.145300 -0.0235279 -0.0100091 0.00884748 1.00794
3389 2 11.397900 1.774860 12.114200 0.00900884 -0.00230257 -0.000885736 15.9994
1226 2 7.940440 3.535360 13.801700 -0.00146014 0.00118392 -0.00319921 15.9994
3136 1 8.658190 1.130710 10.301500 0.0136062 -0.00333729 0.0113055 1.00794
3137 2 7.701280 0.917854 10.433300 0.000892679 -0.000538909 0.00261513 15.9994
1068 2 10.108300 5.936510 12.154800 -0.00948174 -0.00459963 0.00132879 15.9994
3672 2 5.896770 0.119991 14.140500 -0.000446061 -0.00604102 0.00474371 15.9994
464 2 16.583700 4.141630 7.357320 -0.000805223 -0.00277829 0.00455032 15.9994
1385 2 17.016100 0.374819 14.185400 0.00732527 5.02423e-05 -0.000484614 15.9994
911 2 11.974400 2.353410 8.508290 0.000520803 0.000634145 0.00058407 15.9994
3388 1 11.929800 1.155980 12.733700 -0.0112271 0.0058796 0.018705 1.00794
463 1 15.822700 3.789480 7.908870 -0.00465159 0.0037791 0.000929024 1.00794
465 2 15.880800 4.280800 8.770060 0.0037195 0.00670744 -0.000450666 15.9994
3390 2 12.774500 1.616200 13.003500 0.00212666 0.00301083 -0.000112215 15.9994
1164 2 16.879900 1.379820 12.114300 8.90494e-05 -0.00809686 -0.00436267 15.9994
2249 2 14.119500 3.334580 11.783100 0.00791741 -0.000176002 -0.00036386 15.9994
2248 1 14.011600 3.132140 12.771300 0.00277038 0.0127326 0.00196416 1.00794
2250 2 13.242700 3.711010 13.127900 0.00243253 0.00428208 -0.0137252 15.9994
910 1 12.903800 2.149010 8.823610 0.00277653 0.0131393 0.0143914 1.00794
170 2 13.199800 5.298570 10.076200 0.00619221 0.0098747 0.00095389 15.9994
169 1 13.745500 4.426030 10.132000 -0.00133572 0.0130342 0.0160421 1.00794
171 2 13.335200 3.724540 9.512650 0.00136268 0.00172569 -0.00227846 15.9994
1163 2 15.530000 2.239730 11.910000 -0.0103371 -0.0034785 0.000206511 15.9994
3096 2 16.463900 3.709730 11.022700 0.0055969 0.00551509 0.00616985 15.9994
4450 1 11.747800 4.639880 13.272300 0.0245089 -0.0157738 0.0036946 1.00794
3095 2 15.394000 4.828280 10.404900 0.000277475 -0.00460947 -0.00174316 15.9994
3094 1 16.380600 4.580700 10.484700 -0.00606577 -0.00500556 -0.00182312 1.00794
1162 1 16.466400 2.133200 11.556400 0.00483813 -0.00165834 0.0044015 1.00794
912 2 13.018700 1.159080 8.706250 0.000883985 0.003153 -0.00304357 15.9994
4310 2 15.185600 3.107900 13.958000 0.0025435 0.000625347 0.00347407 15.9994
867 2 15.402200 0.634960 7.836850 -0.0045079 -0.0022422 0.00215165 15.9994
866 2 16.282600 1.943370 7.882810 0.00690714 -0.000678794 -0.00550143 15.9994
865 1 16.347800 0.960627 7.787370 -0.00311574 0.0057846 -0.00829977 1.00794
4451 2 11.905600 5.647700 13.224800 0.00398771 0.000552011 -0.000818985 15.9994
4418 2 16.874300 5.339650 12.736000 -0.00329437 -0.00276019 -0.00217088 15.9994
4417 1 17.268800 4.890950 13.563600 0.00375532 -0.0102589 -0.0153584 1.00794
1384 1 17.384600 0.260721 13.260600 0.0105496 0.00901068 0.0171589 1.00794
2922 2 0.348365 8.105160 12.720700 0.00161242 -0.00421172 0.00457761 15.9994
681 2 -0.166627 6.785020 10.063300 -0.0053714 0.0092362 0.00882865 15.9994
679 1 0.781363 6.884910 9.807810 -0.00606268 0.0131661 0.0148603 1.00794
2531 2 5.313500 6.652900 8.517950 -0.00151227 -0.000845576 -0.00071124 15.9994
478 1 4.121890 7.635690 8.041600 0.00140424 -0.0132394 0.00717655 1.00794
680 2 0.855150 7.677050 9.216700 -0.00312702 0.00902558 0.00220924 15.9994
3777 2 3.827670 9.384880 12.035800 0.00182366 -0.00345764 -0.00245464 15.9994
480 2 3.328720 6.986320 7.991020 -0.0093184 0.00414263 -0.000245515 15.9994
3776 2 2.844110 10.519900 11.490200 -0.00538107 0.00362947 -0.00242291 15.9994
3775 1 3.800040 10.306500 11.640200 -0.000591679 0.00716894 0.00573526 1.00794
4115 2 5.217740 8.482940 10.870100 0.00699518 0.00410675 -0.000506237 15.9994
4116 2 4.947690 8.519840 9.316580 -0.00363544 -0.00143345 -0.00403639 15.9994
4114 1 5.614410 8.802400 10.008000 -0.00233244 0.00408656 -0.00765337 1.00794
930 2 4.164440 11.107100 9.892260 0.0012517 -0.00454755 0.00118418 15.9994
929 2 3.150280 11.631300 8.700750 -0.00209721 -0.000300321 -0.00449359 15.9994
609 2 1.456110 6.723370 11.542800 0.00615833 0.00215911 -0.00665525 15.9994
3449 2 1.420500 9.360660 13.729500 -0.00213178 0.00501643 0.00420375 15.9994
607 1 1.354000 6.730430 12.534700 0.00609932 0.00437349 -0.0119693 1.00794
341 2 0.438035 11.180900 10.426200 0.00432316 0.00580641 -0.0027055 15.9994
1462 1 4.427080 7.803590 12.436700 0.0038144 0.0164494 -0.00454471 1.00794
1464 2 3.531190 7.614490 12.854600 0.000891124 -0.00312498 -0.00289969 15.9994
340 1 0.918902 10.833500 11.257600 -0.00995886 0.0302729 0.0131198 1.00794
2129 2 0.412828 11.742700 8.060310 0.00300709 0.00217107 0.00208065 15.9994
2128 1 1.349170 11.487000 7.772580 -0.00577486 -0.0022283 0.0017982 1.00794
2130 2 1.338140 10.478400 7.755910 -0.00197794 -0.00423251 0.00403272 15.9994
2354 2 4.815650 11.379700 12.465100 -0.00415336 0.00495222 0.00556489 15.9994
1463 2 5.065600 7.250400 12.979100 0.00633512 -0.0018492 -0.00585448 15.9994
342 2 0.276034 10.229100 11.764200 0.000991095 0.00167971 -0.000170183 15.9994
3826 1 10.717700 6.973450 7.415560 0.0191027 0.00145907 -0.0120026 1.00794
3827 2 10.566100 6.242710 8.100200 0.0103026 0.00510227 -0.00362672 15.9994
2530 1 6.163590 6.065860 8.587150 -0.022729 -0.0177121 0.00923222 1.00794
2060 2 7.187650 8.728880 9.284580 -0.000186557 -0.000954411 0.00385281 15.9994
2061 2 7.804410 7.360540 8.499460 0.000890818 -0.00244938 0.00244571 15.9994
1066 1 10.236000 6.365920 11.245100 -0.0181021 0.00499229 -0.00184649 1.00794
1067 2 9.876090 7.336580 11.231900 0.00352492 -0.000254696 0.00281802 15.9994
2059 1 7.950850 8.342850 8.731600 0.00567839 0.00168844 0.000123328 1.00794
121 1 9.427550 8.847380 11.005000 0.00829323 -0.00286663 -0.00294636 1.00794
122 2 8.867130 8.701590 10.194000 0.00136382 -0.00065612 0.000239123 15.9994
123 2 8.926700 9.556690 11.571100 -0.00313137 0.0028561 0.00383285 15.9994
2730 2 9.429400 9.535350 8.254810 -0.00345269 0.00541441 0.00154086 15.9994
2728 1 10.105800 10.225100 8.005450 -0.00531072 -0.00374373 -0.0166786 1.00794
2729 2 10.790000 9.716900 7.483670 0.00122285 -0.00206442 0.00235403 15.9994
3591 2 11.045400 11.771800 8.720740 0.00373511 -0.0070705 -0.000726814 15.9994
3966 2 11.367400 8.876050 11.060100 0.00244439 0.00357572 0.0036139 15.9994
4360 1 8.022120 10.836900 12.172400 -0.000123624 0.000781221 -0.0129565 1.00794
4362 2 7.126040 10.857400 12.565600 -0.00431448 0.00386892 -0.00458948 15.9994
4361 2 8.472150 11.617800 12.653300 0.00266115 0.00238636 -0.0037489 15.9994
1939 1 9.689630 6.844750 14.230900 -0.0122766 -0.00584887 -0.0127425 1.00794
1940 2 10.013800 7.759540 13.963500 -0.000113118 -0.000186731 -0.00357419 15.9994
404 2 7.275540 7.168460 13.882300 0.0028965 0.00194157 -0.00135464 15.9994
1793 2 12.246700 7.874990 7.376740 -0.00315436 -0.00767491 -0.000713276 15.9994
2607 2 13.945800 11.232400 8.242700 0.00249031 -0.000530247 0.00641406 15.9994
303 2 15.256900 6.056170 13.562000 -0.00595532 0.00653527 -0.00170742 15.9994
3329 2 12.171000 7.984390 14.105500 0.000327626 0.00700013 0.000887712 15.9994
3328 1 12.401600 7.346760 13.361200 0.0111734 -0.00488144 0.0128129 1.00794
3330 2 12.613900 7.992720 12.616700 -0.000683605 0.00139027 0.00166027 15.9994
1529 2 11.979500 6.430860 10.496700 0.00213663 0.00145108 0.00209335 15.9994
1528 1 12.765800 6.862880 10.005400 -0.00606086 -0.00485631 0.0056165 1.00794
302 2 14.084000 6.916540 12.783200 -0.000631085 -0.00203138 0.00191528 15.9994
1530 2 12.804700 7.801710 10.314000 -0.00268463 -0.000639648 0.00763412 15.9994
3057 2 16.465600 11.451500 10.843100 -0.00268231 -0.00820833 -0.00170783 15.9994
1792 1 13.027600 8.542710 7.285590 0.0023147 -0.00319282 -0.013193 1.00794
301 1 15.057600 6.803660 12.919400 -0.00622601 0.00528306 -0.0144746 1.00794
2605 1 13.832700 10.510000 8.929190 -0.0209501 0.0101752 -0.00879145 1.00794
2606 2 13.337300 9.735710 8.543810 -0.000931914 0.000702505 -0.00878508 15.9994
3990 2 16.327100 8.959030 9.596980 -0.00643433 0.00071019 -0.00507782 15.9994
3989 2 15.074700 9.958410 9.656870 0.000580038 -0.00140546 0.000159632 15.9994
3988 1 16.018700 9.821290 10.022000 0.00144823 -0.0125125 0.00394334 1.00794
3964 1 12.294400 9.049470 11.405200 0.00670909 0.00794886 -0.0158322 1.00794
3965 2 12.528900 10.000700 11.167300 -0.00483741 0.00662449 -0.00134674 15.9994
3579 2 12.926300 11.395700 12.682200 -0.00514774 0.00619214 -0.00751502 15.9994
3518 2 16.408500 7.828100 12.487800 -0.00195828 0.00119523 0.00527088 15.9994
3577 1 12.793800 11.709300 11.739500 0.0112946 -0.0048471 -0.0127694 1.00794
3517 1 17.101500 8.520560 12.274900 0.000754119 -0.00111541 -0.00104573 1.00794
3519 2 16.709600 9.075750 11.528100 0.000797884 -0.00237428 -0.0028265 15.9994
2024 2 16.797000 9.054390 14.054800 0.00106944 -0.0076841 -0.00297957 15.9994
1401 2 15.921300 11.355300 7.465510 -0.00421342 -0.00287255 -0.00150059 15.9994
3377 2 17.744900 6.976550 8.546480 0.000855027 6.96575e-05 0.00462482 15.9994
3378 2 16.351600 7.554820 7.747670 -0.000102871 -0.00326964 0.00518061 15.9994
3376 1 16.999600 7.685930 8.533860 0.000362803 -0.0188528 0.00728577 1.00794
1370 2 -0.213459 15.619900 11.280100 -0.00559029 -0.00521653 0.00118381 15.9994
1966 1 1.253720 16.972600 7.532220 -0.00948013 -0.0142881 -0.00798792 1.00794
928 1 3.862370 11.915500 9.368170 -0.0139469 -0.000196019 0.0127234 1.00794
3258 2 5.303350 12.333800 8.358910 -0.00171521 0.0024361 0.00225241 15.9994
2736 2 2.425560 13.741400 12.735600 0.00657803 0.00712528 -0.00345913 15.9994
1128 2 3.102280 16.250700 8.310940 0.00344993 -0.00866624 -0.00268773 15.9994
3930 2 3.153650 13.493400 10.224500 0.00452852 0.000534439 -0.0050806 15.9994
3928 1 3.258220 14.304300 10.821900 0.000221635 0.00300741 -0.000178162 1.00794
1126 1 3.741170 15.489100 8.083670 0.0229049 0.0202329 -0.00459516 1.00794
1127 2 4.130590 15.056200 8.918470 -0.0038442 0.00529028 -0.000114605 15.9994
1263 2 -0.072474 16.050500 8.560110 -0.00925043 -0.00357669 -0.00669492 15.9994