ITEM: TIMESTEP
0
ITEM: NUMBER OF ATOMS
250
ITEM: BOX BOUNDS
0.000000 14.418785
0.000000 14.410240
0.000000 14.435725
ITEM: ATOMS id type x y z vx vy vz mass
2 1 1.096340 1.106240 1.058150 -0.995906 0.768724 1.22669 55.845
63 1 2.565710 2.518410 2.519070 -2.88222 0.438918 1.47531 55.845
3 1 2.545540 -0.326794 -0.318811 1.64329 -0.187774 -1.50107 55.845
61 1 -0.321883 2.556290 2.540920 -0.965099 0.737091 -0.107904 55.845
53 1 2.575560 -0.314877 2.541050 1.41893 -1.45584 -1.50662 55.845
4 1 4.006630 1.132020 1.108170 -0.102124 0.969869 0.241878 55.845
65 1 5.432270 2.502050 2.572400 3.04634 -0.72469 0.182165 55.845
15 1 5.455480 2.546800 -0.277855 -3.30453 -1.35911 -1.62773 55.845
6 1 6.911790 1.092460 1.086960 1.62745 -1.18598 0.932367 55.845
8 1 9.794620 1.106460 1.075090 -1.98644 -0.0707189 -0.324905 55.845
67 1 8.267200 2.535590 2.524910 0.39985 -0.416972 2.46963 55.845
17 1 8.298210 2.479250 -0.332337 1.29097 -2.61565 0.445171 55.845
10 1 12.650200 1.066000 1.090710 0.183523 -0.408551 -2.25692 55.845
69 1 11.141000 2.608050 2.565480 0.915036 -0.497875 -0.0547108 55.845
19 1 11.247000 2.605990 -0.316619 -0.545864 -0.378971 -2.25048 55.845
12 1 1.052530 3.988440 1.182490 -0.985398 0.669364 -0.0121987 55.845
73 1 2.537060 5.425600 2.526540 0.159804 -0.508584 -0.428536 55.845
23 1 2.519330 5.384600 -0.295653 -0.411167 1.40491 1.13444 55.845
22 1 1.046330 6.844300 1.096450 -0.771917 -1.15705 0.0811165 55.845
14 1 3.967550 3.981380 1.132560 0.151668 0.319168 1.38879 55.845
75 1 5.430880 5.442730 2.579930 -1.30597 -1.66913 1.72014 55.845
25 1 5.455820 5.407260 -0.299376 1.0145 1.57575 -0.354531 55.845
16 1 6.827550 4.012640 1.098860 -0.54872 1.24396 1.28532 55.845
24 1 3.997940 6.823280 1.127830 0.562258 0.255584 -0.260042 55.845
18 1 9.668210 4.040790 1.103050 1.37787 0.668513 1.00451 55.845
77 1 8.265240 5.442860 2.533590 -1.14771 -1.89587 -1.07665 55.845
71 1 14.073500 5.489730 2.609350 0.541553 1.33481 -0.327672 55.845
20 1 12.648300 4.045140 1.089190 1.05887 -0.203037 -0.616848 55.845
79 1 11.182100 5.441120 2.579510 2.66375 -0.899579 1.4166 55.845
32 1 1.077280 9.713760 1.127930 -1.22918 -0.30203 -1.88724 55.845
83 1 2.535170 8.306360 2.532260 0.409905 -0.386206 1.0232 55.845
31 1 -0.331087 8.352550 -0.334363 0.858187 1.4553 -0.556074 55.845
26 1 6.855380 6.912020 1.079510 -1.26777 1.14806 1.24141 55.845
34 1 3.972290 9.708660 1.094710 0.638337 -0.652179 -0.170034 55.845
85 1 5.439390 8.265490 2.565150 -0.329915 -1.15651 -1.19928 55.845
36 1 6.872220 9.753450 1.069820 -0.0718339 -0.0979957 -0.15753 55.845
28 1 9.742130 6.934180 1.056100 1.45414 -0.636643 -0.290868 55.845
38 1 9.772000 9.811230 1.040740 -0.379474 -2.18884 1.3494 55.845
87 1 8.320830 8.370900 2.473100 -0.388038 0.204643 1.02371 55.845
81 1 14.012500 8.256890 2.571970 0.653073 0.021853 -2.5493 55.845
30 1 12.629600 6.877180 1.056650 0.147006 -1.47453 -2.4599 55.845
40 1 12.640700 9.751370 1.107080 1.30005 3.26252 1.42984 55.845
89 1 11.190700 8.349040 2.500140 -1.2193 0.0770274 0.924958 55.845
42 1 1.112930 12.618500 1.086790 0.0333851 -2.65725 -0.896832 55.845
91 1 -0.301137 11.186200 2.529600 -0.5077 -0.820166 -0.657452 55.845
93 1 2.512860 11.168300 2.539560 -2.26835 -0.81652 1.50721 55.845
1 1 -0.329882 14.039700 -0.293512 0.440505 0.913312 -0.619351 55.845
55 1 5.507780 13.988400 2.481030 0.440788 -0.379858 -1.38024 55.845
44 1 3.989240 12.672800 1.119250 1.16731 0.0516219 0.852833 55.845
95 1 5.435480 11.191100 2.472230 0.242821 -0.280475 -0.314745 55.845
45 1 5.418150 11.155600 -0.242775 0.835615 1.60678 0.560934 55.845
57 1 8.294450 14.068700 2.548340 -1.25723 0.892172 -0.257437 55.845
46 1 6.933420 12.608100 1.071210 0.769849 0.622561 -1.52332 55.845
47 1 8.325130 11.154700 -0.321859 -2.22292 -0.632546 -1.34163 55.845
48 1 9.760240 12.590500 1.115790 -0.676911 -0.0764901 -0.0581942 55.845
97 1 8.312750 11.197300 2.532190 -0.107808 0.525398 1.04181 55.845
7 1 8.345350 14.005900 -0.300029 0.350602 -1.89671 -0.983938 55.845
51 1 14.075200 14.062100 2.553100 0.23904 1.06674 0.289493 55.845
59 1 11.206100 14.043500 2.531350 -1.56987 0.620018 -2.51411 55.845
50 1 12.611800 12.654100 1.082830 -1.27932 -0.0117337 0.755437 55.845
99 1 11.228400 11.171500 2.504940 -0.926474 1.9911 -1.6314 55.845
41 1 14.011400 11.210300 -0.333087 -0.385505 1.60263 1.46955 55.845
52 1 1.124550 1.089740 3.982740 -0.240338 -0.150981 -0.619266 55.845
113 1 2.527260 2.579080 5.455300 -0.595665 -0.637572 -0.946268 55.845
102 1 1.082440 1.152690 6.827980 -1.85221 0.529601 -0.756847 55.845
111 1 -0.308990 2.574300 5.439730 -1.14613 -0.962095 -1.9136 55.845
101 1 -0.304897 -0.330029 5.436080 -2.00264 -0.050424 -1.40569 55.845
54 1 3.995010 1.098850 4.026010 -0.396069 0.351114 -0.695731 55.845
115 1 5.459930 2.571490 5.463620 -0.16018 1.11617 1.97084 55.845
56 1 6.827240 1.072270 4.029490 -0.195189 -0.135809 2.54139 55.845
106 1 6.832300 1.071670 6.869050 -1.58533 1.29902 -2.43541 55.845
104 1 3.994080 1.100780 6.849580 1.76889 -0.838989 -1.43746 55.845
58 1 9.783250 1.002750 3.962250 0.832605 -1.16681 1.05793 55.845
117 1 8.310660 2.457720 5.364380 -0.0683478 1.19513 0.232529 55.845
60 1 12.582700 1.158000 3.936620 -0.418789 0.980184 -0.827689 55.845
119 1 11.217000 2.589780 5.420310 1.81894 0.968954 1.00453 55.845
110 1 12.650500 1.068970 6.820650 0.825581 1.26378 2.17911 55.845
62 1 1.100280 3.972850 3.956230 -0.0445745 -2.48643 -1.03484 55.845
123 1 2.606530 5.492470 5.423180 -1.33913 1.017 1.0029 55.845
121 1 -0.247936 5.462660 5.403990 0.889339 0.0972574 1.34514 55.845
64 1 3.998980 3.990250 4.014900 -0.554955 0.383074 -0.444139 55.845
125 1 5.471270 5.394430 5.412300 0.52847 -1.07244 -1.70731 55.845
66 1 6.868910 3.986600 3.954400 0.701731 -0.603738 0.242529 55.845
68 1 9.760190 4.021050 4.024990 -1.06602 3.68234 1.24301 55.845
127 1 8.350990 5.489140 5.421520 0.749174 2.30817 -0.244962 55.845
76 1 6.932060 6.860810 3.995350 -1.34798 0.687528 2.02297 55.845
116 1 6.914350 4.035240 6.864300 -1.1728 0.0214109 -1.83456 55.845
118 1 9.736090 3.966110 6.821190 -0.877028 0.10508 -0.0464218 55.845
70 1 12.607800 4.005360 3.938790 0.00901794 -0.25583 0.871225 55.845
129 1 11.188200 5.471600 5.411090 0.849036 3.27862 2.42458 55.845
120 1 12.712200 4.049670 6.821640 1.52617 -1.69924 -0.383866 55.845
72 1 1.099990 6.949010 4.012510 0.00497026 0.472642 1.9862 55.845
82 1 1.144790 9.781870 4.009510 -1.17714 -0.921458 1.77687 55.845
133 1 2.513080 8.361710 5.510620 -0.433965 1.08168 -0.216912 55.845
122 1 1.108980 6.894950 6.849600 -1.8178 2.71997 1.82657 55.845
131 1 -0.274808 8.319620 5.480960 0.448363 0.43042 2.52257 55.845
74 1 4.000080 6.888730 4.011200 -1.13237 0.194753 0.0984784 55.845
84 1 4.060200 9.771560 4.017210 -0.29051 -2.34551 0.599197 55.845
135 1 5.471250 8.288520 5.378390 -0.918208 -0.994898 1.39004 55.845
126 1 6.865020 6.878490 6.863520 0.0126913 1.53693 0.942596 55.845
78 1 9.729120 6.894740 3.904430 0.789861 -0.543579 1.96779 55.845
86 1 6.889990 9.728000 3.937040 2.18764 -0.527757 -1.51749 55.845
88 1 9.754500 9.794320 3.972970 -0.187532 -0.387056 -0.686826 55.845
137 1 8.341610 8.331070 5.397480 -0.464642 0.734385 0.694278 55.845
80 1 12.680100 6.876900 4.082930 1.40496 0.883112 -1.94605 55.845
90 1 12.635000 9.757400 3.980550 -0.424159 -0.642032 1.30973 55.845
139 1 11.140600 8.368330 5.383940 1.27802 -0.760405 0.0820972 55.845
140 1 12.636200 9.776770 6.819320 -2.26471 -0.04519 0.0972296 55.845
103 1 2.493240 14.071100 5.392150 -1.01785 1.48034 2.30624 55.845
92 1 1.157840 12.636900 3.967530 -0.449468 0.317324 -0.961407 55.845
143 1 2.556030 11.171100 5.435950 -0.341334 -0.587147 0.864932 55.845
141 1 -0.281925 11.245500 5.447670 -0.281052 0.338068 1.90865 55.845
105 1 5.410250 14.004700 5.444400 -0.83825 -0.596329 -0.569154 55.845
94 1 4.013920 12.586000 3.941700 0.383283 2.14526 -1.91307 55.845
145 1 5.502180 11.187000 5.458820 1.87559 0.308851 -0.799753 55.845
96 1 6.873940 12.630800 3.964870 0.708605 -1.15324 0.147865 55.845
107 1 8.284050 14.060000 5.399920 1.70238 1.98667 1.86374 55.845
98 1 9.783680 12.587000 3.916620 -1.11329 1.32077 1.84569 55.845
147 1 8.272760 11.162400 5.415830 -2.14898 -0.351391 -0.117576 55.845
148 1 9.755590 12.633800 6.864110 -1.08341 1.45112 -0.846676 55.845
109 1 11.212500 14.042500 5.400230 -0.665545 -0.17437 0.644844 55.845
100 1 12.697400 12.589600 3.947480 0.694255 1.19891 0.601094 55.845
149 1 11.182100 11.256000 5.479760 -0.114184 -0.428406 0.245265 55.845
150 1 12.673400 12.647400 6.865230 -0.406788 0.839822 0.498772 55.845
152 1 1.123620 1.093600 9.790490 -0.822472 -2.63055 0.209777 55.845
163 1 2.538730 2.590540 8.307320 1.11486 2.20526 -1.23571 55.845
161 1 -0.291987 2.584410 8.324410 0.589355 -1.52084 -0.860107 55.845
151 1 -0.286708 -0.307767 8.338430 0.341124 1.74083 -0.279711 55.845
153 1 2.548860 -0.323477 8.268080 -1.16971 1.57309 2.07565 55.845
154 1 3.975200 1.136660 9.751760 0.174991 -0.822083 0.805148 55.845
165 1 5.477830 2.527650 8.273110 -1.2196 -0.192687 -1.3126 55.845
156 1 6.859850 1.067320 9.763800 -0.292034 0.0516914 0.844251 55.845
108 1 9.756170 1.088560 6.879560 1.37444 -0.558695 0.0838619 55.845
158 1 9.794120 1.127280 9.735560 0.190914 0.127953 0.829639 55.845
167 1 8.305210 2.537780 8.315200 -1.54048 -1.66416 0.586311 55.845
157 1 8.331710 -0.321190 8.366800 1.74589 0.910708 0.50217 55.845
160 1 12.669000 1.136930 9.764600 -0.90944 -1.63056 1.13761 55.845
169 1 11.236100 2.591220 8.323700 0.0557365 0.851431 0.0530135 55.845
112 1 1.141570 4.012230 6.894380 -1.12763 -0.425813 -1.15131 55.845
162 1 1.161290 4.043350 9.773880 0.227245 1.26265 1.6206 55.845
173 1 2.581310 5.421420 8.268920 0.695721 -0.549908 1.11236 55.845
172 1 1.170250 6.862630 9.725110 -0.702747 -0.248351 1.20877 55.845
114 1 3.983860 3.961050 6.877450 -0.214421 -1.8111 0.812869 55.845
164 1 3.969580 3.949800 9.771000 0.181994 -0.478591 -0.924876 55.845
175 1 5.442940 5.421090 8.259120 -0.620222 -1.53275 3.35073 55.845
166 1 6.827360 3.936670 9.769590 -0.12391 1.03425 -0.563731 55.845
174 1 4.022430 6.841540 9.731630 -0.48016 0.541472 0.311416 55.845
176 1 6.799250 6.839460 9.695600 -1.09227 -0.841219 -0.809843 55.845
168 1 9.754990 3.996690 9.695100 0.338619 -0.890577 0.626063 55.845
177 1 8.326470 5.450440 8.286620 -1.27878 -1.62178 0.180476 55.845
171 1 14.083000 5.482950 8.300370 2.59417 0.190408 -2.70238 55.845
170 1 12.688500 3.998430 9.743180 0.30839 0.329796 0.0306353 55.845
179 1 11.129300 5.424030 8.247590 -0.491439 1.75994 -0.154278 55.845
180 1 12.608900 6.831300 9.780690 1.69285 0.071937 0.493495 55.845
132 1 1.087540 9.794680 6.925910 -1.26186 2.07368 -1.25225 55.845
182 1 1.104840 9.778220 9.810000 0.982066 -2.65514 0.536701 55.845
183 1 2.546470 8.303850 8.361920 -0.0343369 -1.23802 -1.70872 55.845
181 1 -0.331542 8.369190 8.367860 -0.569087 -1.17557 1.83178 55.845
124 1 4.005310 6.910410 6.883930 0.0511476 -1.22067 -2.1632 55.845
134 1 3.964250 9.783030 6.934660 1.75534 -0.313148 -0.777571 55.845
184 1 3.979570 9.737240 9.788960 2.37975 -1.15877 0.957291 55.845
185 1 5.398530 8.340570 8.314830 -0.195156 -0.443757 -0.53758 55.845
186 1 6.842600 9.685070 9.789360 0.634982 -3.47365 -0.690279 55.845
128 1 9.731870 6.936010 6.888860 0.235611 1.07488 -1.52135 55.845
138 1 9.771220 9.783200 6.898960 -0.594657 -1.29176 0.350622 55.845
178 1 9.764890 6.881400 9.749520 1.77593 -0.859769 0.651485 55.845
136 1 6.916310 9.707440 6.920470 0.726125 0.724602 -0.271304 55.845
187 1 8.292330 8.335110 8.368380 0.37083 -1.29175 0.462552 55.845
188 1 9.835160 9.818650 9.766010 -0.568672 -0.135988 -2.5816 55.845
130 1 12.665100 6.954960 6.901130 -1.23455 -2.19237 -1.17846 55.845
189 1 11.270900 8.327520 8.407250 0.647542 -0.278241 1.2872 55.845
190 1 12.633300 9.816790 9.778770 -0.720313 0.67201 1.59322 55.845
142 1 1.169130 12.592800 6.918400 2.43183 1.11369 -0.400966 55.845
192 1 1.095090 12.653400 9.810150 -0.0891639 -0.456943 0.707247 55.845
193 1 2.573290 11.186700 8.387940 -1.06739 0.943637 -2.03912 55.845
155 1 5.364830 14.038900 8.327380 -2.27343 2.29948 1.43736 55.845
144 1 3.944610 12.601900 6.917660 2.36129 -0.482059 -0.697866 55.845
194 1 3.941120 12.658300 9.758360 -1.01693 0.490374 1.97827 55.845
195 1 5.380690 11.192100 8.394830 -0.992644 1.93477 0.748268 55.845
196 1 6.821760 12.653100 9.763810 1.56961 1.11785 -1.47408 55.845
146 1 6.875320 12.628500 6.925940 -2.22504 0.898681 0.629386 55.845
197 1 8.356820 11.203900 8.399850 0.215759 0.313999 -0.905805 55.845
198 1 9.761400 12.665900 9.806670 1.25013 0.693535 -0.188545 55.845
159 1 11.227700 14.069100 8.324390 0.0249939 1.79129 -1.41213 55.845
191 1 14.066700 11.225000 8.385710 -0.375675 1.82584 -0.473412 55.845
199 1 11.263000 11.287300 8.358950 0.618869 -0.990068 1.19706 55.845
200 1 12.708100 12.673900 9.793390 -1.61609 -1.76186 1.32241 55.845
11 1 -0.330514 2.524340 14.069600 -0.748942 -0.271889 -1.20776 55.845
13 1 2.528680 2.536130 14.088900 -0.0642656 -0.461531 -2.49609 55.845
202 1 1.097820 1.139270 12.691400 1.95818 0.161674 -2.10788 55.845
213 1 2.554270 2.577770 11.237400 1.45453 0.575368 1.33546 55.845
203 1 2.574460 -0.272196 11.246700 1.19119 -0.346713 1.32988 55.845
211 1 -0.309242 2.583090 11.198000 -1.01874 0.180206 -2.53916 55.845
201 1 -0.310210 -0.259110 11.224300 -0.174192 -0.722947 0.167334 55.845
204 1 4.073280 1.094850 12.646500 -1.71136 0.32365 -0.529827 55.845
215 1 5.449630 2.482330 11.163200 3.07205 2.49256 -0.269635 55.845
5 1 5.416190 -0.301776 14.081700 -0.475754 1.39539 -0.789978 55.845
206 1 6.891810 1.060770 12.651900 1.6463 -0.56843 -2.72715 55.845
208 1 9.772420 1.132500 12.613400 2.34189 1.07069 1.11455 55.845
217 1 8.310680 2.498970 11.155600 1.06662 1.25382 -0.0384974 55.845
210 1 12.666000 1.109700 12.680100 0.0150108 -0.210458 0.0977651 55.845
219 1 11.207100 2.553560 11.138900 1.52838 -0.781889 1.11883 55.845
9 1 11.190300 -0.302437 14.054100 -0.879831 1.50269 -0.939789 55.845
209 1 11.216100 -0.288520 11.206500 1.60434 0.305322 1.55988 55.845
212 1 1.102610 4.027830 12.692900 0.589113 -0.352848 -0.454028 55.845
223 1 2.592640 5.439370 11.235000 0.779378 -0.818544 1.5056 55.845
221 1 -0.242052 5.479490 11.144800 -1.13444 -1.10908 3.28474 55.845
214 1 4.026690 3.982360 12.723300 1.92502 2.04928 0.513641 55.845
225 1 5.402100 5.400020 11.266000 0.513959 0.885153 1.05621 55.845
216 1 6.842700 3.968630 12.665200 -0.19284 -0.859381 0.372142 55.845
224 1 4.000890 6.848570 12.676400 0.194653 2.33767 -2.21822 55.845
27 1 8.278080 5.486230 14.086800 -0.568356 0.21728 -0.446169 55.845
218 1 9.714320 3.969540 12.644200 -1.29488 -0.47394 -0.0258621 55.845
227 1 8.258600 5.455460 11.159100 0.945164 -0.468754 -1.16906 55.845
228 1 9.778110 6.852900 12.599600 0.270628 -1.56312 -1.49512 55.845
21 1 14.044700 5.442740 14.070700 -1.8357 -0.616831 0.50749 55.845
29 1 11.180100 5.414790 14.029500 0.00843177 0.0739333 0.230668 55.845
220 1 12.631200 4.022900 12.600300 1.03988 1.52384 0.643996 55.845
229 1 11.151300 5.360790 11.167800 1.52928 -1.56106 0.567384 55.845
230 1 12.608800 6.845470 12.539200 0.480005 0.800778 -1.10727 55.845
33 1 2.470680 8.264720 14.076300 1.34465 0.697719 -1.56848 55.845
222 1 1.059290 6.886290 12.678200 -0.040942 -0.369266 -1.26411 55.845
232 1 1.068600 9.736430 12.689700 0.619071 -1.8233 -0.901459 55.845
233 1 2.549420 8.267110 11.275800 0.461088 1.3431 0.517354 55.845
231 1 -0.314658 8.308150 11.214400 -1.66817 1.55578 -1.37319 55.845
35 1 5.365350 8.332530 14.083400 -0.779999 -0.113693 0.900391 55.845
234 1 3.979800 9.717460 12.683900 1.79842 -0.442299 -0.538937 55.845
235 1 5.393250 8.282010 11.229100 0.430563 3.68783 0.258904 55.845
236 1 6.774610 9.825050 12.668600 1.79239 -0.507174 0.158524 55.845
37 1 8.318670 8.366480 14.063200 1.53059 -0.279451 -2.16515 55.845
226 1 6.880050 6.900210 12.654200 -0.452753 -1.23787 -0.00848618 55.845
237 1 8.401840 8.276820 11.218500 -0.630893 0.563997 0.252745 55.845
238 1 9.801820 9.782980 12.584100 -0.0697009 0.860888 0.0494301 55.845
39 1 11.203100 8.316950 14.005300 0.603558 -1.32004 1.62253 55.845
239 1 11.237100 8.297410 11.162300 -1.1387 -0.892891 1.5764 55.845
240 1 12.605600 9.776200 12.671500 0.78056 -1.85032 1.53711 55.845
43 1 2.571210 11.169900 14.089500 -1.2737 0.0641499 -2.14485 55.845
242 1 1.113930 12.638700 12.669600 -0.40025 0.972697 -0.24171 55.845
243 1 2.499370 11.196400 11.232600 0.918252 -0.60025 0.2188 55.845
241 1 -0.303002 11.196700 11.242700 -1.31057 -3.34193 -0.30578 55.845
205 1 5.417750 14.070200 11.221900 -1.0384 0.217447 2.14947 55.845
244 1 3.950250 12.692600 12.688300 -0.816377 -1.84734 -1.41906 55.845
245 1 5.367130 11.248200 11.240900 -0.618323 -0.0113128 -2.64725 55.845
246 1 6.833550 12.652800 12.664200 -0.905144 -0.542056 -1.02008 55.845
207 1 8.313550 14.036000 11.195100 -1.69817 0.410969 0.411605 55.845
247 1 8.291410 11.143700 11.211900 -0.690594 -0.864846 0.608687 55.845
248 1 9.710260 12.604700 12.614100 -0.927661 -0.501643 0.375006 55.845
49 1 11.185400 11.212100 14.047100 1.69436 -3.1744 -1.9994 55.845
249 1 11.225600 11.244600 11.216000 -0.144245 -1.10568 -1.66348 55.845
250 1 12.676900 12.695100 12.651600 0.487944 -1.84391 -0.885221 55.845
