ITEM: TIMESTEP
0
ITEM: NUMBER OF ATOMS
4500
ITEM: BOX BOUNDS
0.000000 35.624432
0.000000 35.624432
0.000000 35.565075
ITEM: ATOMS id type x y z vx vy vz mass
4258 1 6.018450 3.383790 1.484720 -0.00865916 -0.00237063 0.017766 1.008
4260 2 6.117580 4.294730 1.761460 -0.00168653 0.000515662 0.00545421 15.9994
4259 2 6.741290 2.923430 1.911100 0.000489625 0.00175404 0.00650556 15.9994
171 2 5.595820 3.205090 5.545570 0.000210351 0.00374048 -0.00329034 15.9994
169 1 6.217550 3.703130 6.076280 -0.00976052 0.0190507 -0.00607147 1.008
170 2 6.951260 3.876810 5.486590 0.000115582 0.00411333 0.00189988 15.9994
3885 2 6.986800 6.380280 1.943130 0.000640239 0.00271169 0.000241265 15.9994
3883 1 6.641260 6.033410 2.765640 -0.00664658 -0.0191354 -0.0122253 1.008
541 1 2.402000 4.531330 5.066510 0.0134625 -0.00393601 0.00175379 1.008
543 2 2.608890 4.994600 5.878190 0.00820415 -0.00541131 0.00385553 15.9994
3884 2 5.746130 6.369480 2.810600 -0.000943448 -0.00565978 -0.00233948 15.9994
542 2 2.007100 3.708140 5.353990 -0.0058529 0.00389211 -0.00248766 15.9994
3055 1 4.331520 2.854310 3.924210 -0.0030148 0.00319015 0.00317541 1.008
3057 2 4.746310 3.051940 3.084490 -0.00118505 -0.0020248 0.00293997 15.9994
3056 2 3.642890 3.513250 4.012690 -0.00300476 0.00382754 -0.00232884 15.9994
4174 1 4.111050 1.726580 7.414850 0.00546394 -0.00411779 0.00738209 1.008
2523 2 2.859150 2.526120 1.116730 3.05619e-05 0.00198494 0.00098796 15.9994
3646 1 4.338070 7.579650 3.405330 0.0118534 -0.00367263 -0.0239166 1.008
3876 2 1.680510 6.295660 7.947470 -0.00754701 -0.00163829 0.00332589 15.9994
3874 1 2.378100 6.468630 7.315270 -0.0138661 -0.00425197 -0.0042412 1.008
3875 2 2.596750 7.391360 7.445640 -0.00164107 -0.00793504 0.000727588 15.9994
3647 2 3.573610 7.079090 3.120230 0.00547714 -0.00432929 -0.00535235 15.9994
2922 2 5.626730 7.636330 4.853290 0.00514984 0.00111041 -0.0020247 15.9994
2920 1 6.073060 7.858330 5.670440 0.00601865 -0.00425316 -0.00113186 1.008
3105 2 0.264915 0.607180 4.746290 0.00103545 -0.00516283 0.00653727 15.9994
930 2 7.684160 4.974680 3.642960 0.00360433 -0.00263622 -9.63527e-05 15.9994
2921 2 6.963240 8.087170 5.403170 0.00468368 0.000804147 -0.000974621 15.9994
2902 1 1.640010 6.681200 3.469200 -0.0208508 0.00607592 0.00188071 1.008
1688 2 8.804160 8.588000 2.200100 0.00501377 0.000415824 -0.00909866 15.9994
3447 2 0.136219 1.792880 1.893820 0.00125828 -0.000756357 -0.00344899 15.9994
2903 2 1.811330 5.801360 3.805010 0.000954087 0.0103075 0.00163611 15.9994
2904 2 1.724590 7.250640 4.233940 -0.00281295 0.0117515 -0.00443419 15.9994
2521 1 3.625530 1.975590 0.956045 0.00372452 0.00325745 0.014784 1.008
2522 2 4.361210 2.587700 0.938049 -0.00103322 0.00825204 -0.00476612 15.9994
3648 2 4.144920 8.480810 3.146780 -0.00456383 -0.000465946 -0.000119887 15.9994
2015 2 1.455000 4.472350 1.271860 0.000733309 -0.0049748 8.05939e-05 15.9994
479 2 7.535120 2.929600 7.312020 0.00370395 0.003266 0.00494622 15.9994
4175 2 4.364430 2.643370 7.522220 0.00197519 -0.00283343 0.00394849 15.9994
476 2 5.052330 4.737100 7.241950 -0.000445963 0.00137052 0.000764887 15.9994
478 1 8.343040 2.570110 7.678460 0.0076494 0.00212465 -0.00511122 1.008
2424 2 2.697560 1.873350 6.116400 0.00378832 -0.00577147 0.00109049 15.9994
475 1 4.316280 4.675720 7.850800 0.00564231 -0.000607363 0.00779773 1.008
2422 1 1.839870 1.928600 5.695030 0.0114549 -0.0267559 -0.0171589 1.008
2423 2 1.255790 1.439580 6.274640 0.000621102 0.00396385 -0.00223928 15.9994
1095 2 6.152790 7.765580 7.506180 0.000850145 0.00244561 -0.00338311 15.9994
1093 1 6.123180 8.072840 8.412240 -0.00133718 0.00251258 -0.00355892 1.008
2014 1 1.368800 3.803250 1.950910 -0.0159874 -0.0100422 -0.00709397 1.008
4176 2 4.814770 1.342800 6.891660 0.00212036 -0.00113654 0.00084324 15.9994
2016 2 0.708931 4.152740 2.549790 0.0025014 0.00620021 0.00376397 15.9994
2452 1 8.779390 0.717470 5.513060 0.000390466 0.021155 -0.0198655 1.008
929 2 8.365410 3.626130 3.738980 0.00282602 -0.00299913 -0.00158551 15.9994
4265 2 8.401130 1.396360 3.302870 -0.00300188 2.25069e-05 0.0051563 15.9994
2516 2 8.503460 3.744180 0.351658 -0.000382273 -0.00159855 -0.00192563 15.9994
2453 2 8.571330 1.343260 6.206850 0.00278265 -0.00394204 0.00334157 15.9994
4454 2 1.198240 8.662330 1.105860 -0.0022696 0.00906948 -0.0013107 15.9994
4455 2 0.746574 7.596050 2.081020 0.00339526 0.00483643 -0.00350422 15.9994
4453 1 0.432022 8.355540 1.590650 -0.000137946 0.00518022 -0.000552213 1.008
680 2 6.966480 0.253004 5.837200 0.00337099 -0.00445547 0.00224507 15.9994
928 1 8.021140 4.340180 4.275490 -0.00666412 -0.00844057 -0.000503693 1.008
4264 1 8.255720 2.128770 2.703980 -0.0133961 -0.0191364 -0.0156137 1.008
477 2 3.789290 5.453940 7.669450 -0.00506167 -0.00887452 0.0038752 15.9994
1589 2 0.102820 0.376996 8.099850 0.00450489 -0.00248063 -0.0023458 15.9994
1759 1 0.026905 5.212960 0.040707 -0.00763783 -0.00587872 0.00262864 1.008
2981 2 0.938735 5.825420 6.300590 0.00327866 0.000176237 -0.00443421 15.9994
2980 1 -0.014568 5.740910 6.318030 0.00338705 0.0014754 0.00506016 1.008
2966 2 4.363810 0.907484 3.447090 -0.00420154 -0.00374676 -0.00026549 15.9994
681 2 5.734120 0.460533 4.982740 0.00349756 -0.00219104 0.00282733 15.9994
3474 2 7.336430 7.036550 0.234688 -0.00168941 -0.00175157 0.00190498 15.9994
3898 1 3.761800 6.734620 0.049043 0.00433721 0.00672741 0.00947398 1.008
3899 2 4.710890 6.844270 0.107769 0.00424726 0.00906417 0.00526816 15.9994
679 1 6.063850 0.569356 5.874740 -0.00446765 -0.0278971 0.00880276 1.008
789 2 3.876090 0.236390 0.474517 -0.00148031 0.00208554 -0.00159455 15.9994
3446 2 0.106481 1.710740 0.382439 -0.00419048 0.00452992 -0.00350741 15.9994
2225 2 5.642270 0.758108 8.638300 0.00139024 9.18772e-05 0.00216639 15.9994
2965 1 4.872300 0.104263 3.558910 0.00453988 0.00253689 0.00461817 1.008
2967 2 5.340010 -0.000978 2.730420 0.00260197 0.000506549 0.00386592 15.9994
4006 1 9.883390 6.256290 5.041690 -0.00728117 -0.00424176 0.0177246 1.008
2807 2 10.827000 0.328149 1.736510 0.000930232 0.000435715 0.0026788 15.9994
2515 1 9.148230 4.448400 0.419430 -0.00893377 0.00596393 -0.000932019 1.008
3264 2 16.346500 1.670660 4.818670 0.00175678 0.00292453 -0.00386354 15.9994
480 2 8.976250 3.284690 7.610280 0.00388538 0.00586586 0.000358543 15.9994
4007 2 9.171140 5.725530 4.685030 -0.00018221 -0.00228469 0.000828463 15.9994
3164 2 11.888400 1.123480 4.913250 -0.004083 0.00501188 0.00112528 15.9994
4008 2 9.566820 7.157310 4.977120 0.000229308 -0.00279612 0.00214927 15.9994
2454 2 9.729250 0.778517 5.411750 0.00427551 -0.00141121 0.00394859 15.9994
2502 2 9.945930 5.664660 6.916270 -0.000789829 0.00865165 0.00342456 15.9994
4119 2 12.159300 7.114880 2.971760 -0.00316964 0.00116019 -0.00173945 15.9994
4117 1 12.398100 6.985480 3.889610 0.00351554 -0.00595935 -0.00457349 1.008
4118 2 11.680600 6.466720 4.253430 -0.00258344 0.00662812 0.0011011 15.9994
2446 1 13.285300 4.580840 5.715250 -0.0113135 0.00523317 -0.00626591 1.008
2447 2 13.301100 3.906230 5.036380 -0.00412048 -6.66025e-05 -0.000735998 15.9994
4242 2 13.852900 5.684340 3.454890 0.00152499 -0.00428351 -4.35806e-05 15.9994
2256 2 10.844400 1.705010 0.181656 -0.000223085 0.00125693 -0.000996377 15.9994
2255 2 10.850200 3.059930 0.856967 -0.000454978 0.000191203 0.00087104 15.9994
2254 1 10.463300 2.186360 0.916024 -0.00885917 0.00341699 -0.00693734 1.008
3117 2 14.598000 8.600220 7.414090 -0.00097648 0.00191903 0.0070299 15.9994
3115 1 15.515000 8.866120 7.345960 -0.00143834 0.00403374 0.0102803 1.008
4266 2 9.073870 2.203150 2.212720 -0.00411103 -0.00291994 0.00246316 15.9994
2156 2 15.655700 3.778560 2.904790 -0.000773911 0.00185068 0.00196121 15.9994
3017 2 13.619600 4.274030 2.021590 0.000777303 0.00427454 0.000694758 15.9994
3018 2 13.383800 3.705440 0.638469 -0.00509033 0.000341675 0.00344445 15.9994
3016 1 13.306400 3.491330 1.568200 0.0120021 -0.0021781 0.00421923 1.008
718 1 15.894800 4.191770 6.814550 -0.00208972 0.00478785 0.0032452 1.008
720 2 15.009000 4.314640 6.473070 -0.00298959 -0.00483565 0.00230374 15.9994
4241 2 14.546200 6.027860 2.153650 0.00309388 -0.00551053 0.000609674 15.9994
4240 1 14.548800 5.389960 2.867310 -0.0079024 -0.0133925 -0.00650868 1.008
2500 1 9.774480 5.070030 7.646510 -0.00142784 0.00597649 0.000985974 1.008
2501 2 10.642600 4.790630 7.937380 -0.00176975 0.00463904 0.000479305 15.9994
2954 2 15.912700 7.702120 6.196520 0.00149577 -0.000320816 -0.00456281 15.9994
2955 2 16.191600 6.285310 5.741760 0.00153116 -0.000566814 -0.00337029 15.9994
2953 1 16.238100 7.196350 5.451810 0.00951974 -0.00029619 -0.000969336 1.008
719 2 15.767800 3.772370 7.665560 0.00168144 0.000207208 0.00147005 15.9994
24 2 12.724400 7.546990 1.145270 -0.00258578 0.00294753 0.0043581 15.9994
22 1 11.819300 7.235960 1.128500 -0.00520671 0.0113867 -0.00725451 1.008
23 2 11.799300 6.593800 0.418948 0.000986418 0.00237849 0.000808356 15.9994
1828 1 9.120000 7.102630 1.158930 0.00419217 -0.00321302 0.00663981 1.008
1830 2 9.978140 7.424490 0.882821 0.000536686 -0.0025858 -0.00384164 15.9994
1829 2 9.110340 6.184020 0.890054 -0.00255429 -0.000271183 -0.00302516 15.9994
3980 2 12.809700 2.664550 3.251830 -1.32036e-05 0.00162351 -0.001486 15.9994
1971 2 9.021550 6.205750 8.549800 0.000168244 -0.000977625 0.00240314 15.9994
3979 1 13.033100 2.489280 4.165940 0.00592965 0.013501 -0.000726576 1.008
2448 2 12.686200 4.239250 6.379070 -0.00418713 0.00223879 -0.0014754 15.9994
38 2 12.887500 6.524960 7.680990 1.00795e-05 -0.000484161 -0.00253352 15.9994
39 2 13.028500 6.948130 6.234290 -0.00629497 0.000646958 -0.00269007 15.9994
37 1 13.006900 7.295600 7.125940 -0.00891749 0.000606118 -0.00281815 1.008
3263 2 16.347600 2.612990 6.003540 0.00648694 0.000972712 -0.00247115 15.9994
406 1 11.703100 2.395350 8.757580 0.00422228 -0.0145254 -0.00604677 1.008
3981 2 13.923300 2.138970 4.132510 0.00304363 0.00653818 -0.00262591 15.9994
3262 1 16.848000 1.903850 5.599880 0.0149539 0.0147302 -0.0159583 1.008
553 1 14.760200 0.624002 0.984159 -0.000565718 0.00540773 -0.00365035 1.008
3399 2 15.090300 8.861010 1.804990 0.00117196 -0.00033199 -0.00598728 15.9994
3397 1 14.228600 8.701510 1.420090 0.0116015 -0.00974359 -0.0251442 1.008
186 2 8.893920 8.771540 8.732530 -0.000571466 0.00291292 0.00606355 15.9994
2155 1 15.973600 2.891210 2.738120 0.0130076 0.0102414 -0.015926 1.008
2157 2 15.413300 2.563720 2.034560 -0.00500728 0.00282461 0.00199156 15.9994
1613 2 15.570100 1.393000 7.831030 0.000899845 0.0110914 0.000808902 15.9994
3768 2 12.772300 3.923890 8.554880 0.00560272 -0.00344325 -0.0058831 15.9994
3766 1 12.810100 4.873220 8.438370 0.0095725 -0.00392807 -0.00790476 1.008
1612 1 14.778100 1.607910 8.323800 -0.00113328 -0.0134261 0.00814983 1.008
1822 1 16.912000 8.306890 3.085660 0.00431413 0.0041332 -0.000883388 1.008
3163 1 11.406300 0.307556 5.047450 -0.0139486 0.0103209 -0.0024889 1.008
2571 2 17.751200 8.449320 1.389350 0.00468235 -0.0026836 -0.00126363 15.9994
4216 1 17.052800 0.029816 7.540500 0.012607 0.0266833 0.0198768 1.008
1824 2 16.541100 7.909310 3.873450 0.000650305 0.00448925 -0.00251911 15.9994
2258 2 17.333100 8.548440 7.856280 -0.00756541 -0.00517 0.00176873 15.9994
555 2 14.315100 1.008240 0.228873 -0.00438647 0.00167283 -0.00319949 15.9994
4218 2 17.104900 0.658566 6.820640 -0.00142608 -0.000801868 -0.00503523 15.9994
3331 1 14.897100 0.181710 4.419200 -0.00738204 -0.0016149 -0.00221304 1.008
284 2 14.279000 0.142285 7.568850 0.00135204 -0.0019596 -0.00168369 15.9994
2989 1 2.912030 9.500570 7.188760 -0.00350759 0.00466738 0.00240023 1.008
1687 1 8.780100 9.497860 2.496450 0.0265014 -0.0043641 0.00708598 1.008
2555 2 0.657939 17.756600 7.979410 -0.00111363 0.00136919 -0.0039613 15.9994
843 2 1.934520 14.577100 5.027170 -0.000761285 0.00452709 -0.00269908 15.9994
2587 1 5.295250 16.907200 3.504300 0.000246845 0.00799162 -0.00515821 1.008
3394 1 4.948330 14.516400 2.028110 0.0153492 -0.00886122 0.024723 1.008
2589 2 5.797360 16.165900 3.842890 -0.00460891 0.00265099 -0.00991278 15.9994
1371 2 1.597280 14.723800 0.897552 -0.00353909 -0.00106712 -0.00235308 15.9994
4227 2 1.981500 10.972000 0.876710 -0.00512663 -0.00381864 0.00114007 15.9994
4226 2 2.583810 11.614700 2.107960 0.00376448 -0.00481987 -0.00283606 15.9994
4225 1 1.942670 11.763900 1.413030 0.00769736 0.000970965 -0.00512271 1.008
3711 2 5.589610 14.930500 5.679620 0.00715171 -0.00267035 0.00241741 15.9994
3709 1 4.680190 14.743900 5.912800 0.00886053 0.00594698 0.0156059 1.008
3710 2 4.713090 13.889100 6.342200 0.00448203 -0.00260145 -0.0012828 15.9994
2538 2 8.636410 9.374370 4.574920 0.000139347 0.00145865 -0.000251375 15.9994
4257 2 2.180580 11.900800 5.355090 0.00247229 -0.00242121 -0.000360663 15.9994
4255 1 2.245150 10.986100 5.080610 -0.00226604 -0.00350637 0.00244332 1.008
4256 2 2.242950 10.489300 5.898800 -0.00780121 -0.00114907 0.00378395 15.9994
4180 1 7.272910 14.793000 4.067730 -0.00362157 0.000170454 -0.00918402 1.008
4182 2 8.119630 15.043400 3.698130 0.000990199 -0.00049684 0.00114794 15.9994
123 2 3.238850 10.324100 3.731170 0.000534361 0.00179878 -0.00077899 15.9994
122 2 4.542370 10.728700 3.076150 0.00190679 -3.14354e-05 0.00110233 15.9994
121 1 3.765970 10.184500 2.944470 0.0048457 -0.0046423 0.00333323 1.008
3774 2 5.579520 12.769600 2.884420 0.000725853 -0.000472562 -0.00376534 15.9994
3772 1 6.120720 12.014200 3.113690 0.00709566 0.00569396 0.00127177 1.008
3773 2 6.642570 11.845800 2.329110 0.00545928 0.00231165 0.000995736 15.9994
842 2 3.023090 14.151200 5.989210 -0.00290433 -0.00289022 -0.00374943 15.9994
2990 2 3.755250 9.951650 7.230480 -0.000791804 -0.000540596 0.0021397 15.9994
2536 1 8.665360 8.939530 5.427160 0.00670606 0.00131653 -0.000618144 1.008
2537 2 8.288620 9.576350 6.034430 -0.00185346 -0.00437579 -4.46659e-05 15.9994
2464 1 2.748430 16.132100 0.256947 -0.00397079 -0.000781414 0.00214245 1.008
2465 2 3.640170 16.379500 0.501522 -0.00274284 -0.000610272 -0.00281503 15.9994
4181 2 7.203390 13.854300 3.894010 0.0038995 -0.00240876 0.00221088 15.9994
2433 2 5.783120 10.361400 6.384580 -0.00432034 -0.00209595 0.000609949 15.9994
2588 2 5.214120 17.502500 4.249470 -0.000708305 0.00118419 5.50168e-05 15.9994
3396 2 4.649220 15.255400 2.557910 0.00442161 0.000935529 0.00481127 15.9994
3395 2 5.686040 14.863700 1.526670 -0.00250986 -0.00586141 0.000602546 15.9994
3232 1 7.888190 12.857600 0.722380 -0.00275412 0.00516065 -0.00203005 1.008
3234 2 7.949100 13.807300 0.824696 -0.000877581 0.00497211 -0.00210361 15.9994
2368 1 7.176280 15.539200 0.997847 -0.00182925 0.00753394 0.00538177 1.008
2369 2 7.925240 15.775900 1.544880 0.00140803 0.00253324 0.00298056 15.9994
3392 2 2.412320 17.345200 4.450380 0.000911809 0.0016402 -0.00101235 15.9994
4289 2 4.062910 17.305200 6.396120 -0.000419013 0.00692569 0.00134422 15.9994
2991 2 2.494770 9.693660 8.028310 -0.00225958 0.00766414 0.00224142 15.9994
2431 1 5.505580 10.652200 7.253280 -0.0114587 -0.00738492 8.95425e-06 1.008
2432 2 5.904680 10.024200 7.855450 0.00161552 0.00192625 0.000916703 15.9994
1369 1 0.845661 14.136600 0.977864 -0.00470493 -0.000156944 -0.00765154 1.008
987 2 4.548850 11.917100 7.765880 0.000714169 -0.000632255 -0.00333175 15.9994
2466 2 2.222460 16.908100 0.450430 -0.00123226 0.00284812 -0.00536138 15.9994
841 1 2.203540 13.854100 5.593840 -0.00444744 0.00213501 -0.00413059 1.008
1370 2 1.223670 13.297700 1.241450 -0.00780908 8.10515e-05 -0.00276296 15.9994
3967 1 3.946550 17.237700 8.397650 0.000758181 -0.00147425 -0.0135153 1.008
985 1 4.220110 12.802300 7.922570 -0.00428308 -0.00400113 0.00464147 1.008
1847 2 6.844030 13.788600 8.501320 -0.0016793 -0.0106207 0.0045775 15.9994
3393 2 1.232300 16.631300 3.826030 -0.00326144 0.00453907 0.00385486 15.9994
3391 1 1.534290 17.497000 4.100790 -0.00154419 0.00315683 0.00604873 1.008
3645 2 3.866580 11.917100 0.218720 -0.00200934 0.00174678 0.000100486 15.9994
1676 2 0.299424 10.025800 2.887260 0.000529628 0.00359524 -0.00108428 15.9994
112 1 8.409660 13.829200 7.395380 0.00497461 -0.00345838 -0.00590599 1.008
1505 2 0.382395 13.720500 5.966560 0.00264864 0.000759467 -0.000408333 15.9994
2554 1 1.147210 17.220300 8.603330 0.0134241 0.0182451 -0.000946774 1.008
2018 2 2.440980 13.119000 8.629960 0.00305409 -9.07171e-05 0.000408406 15.9994
3968 2 4.409500 16.436300 8.641880 0.00131347 0.00194384 -0.00370968 15.9994
986 2 4.840910 13.182300 8.544210 0.000525059 -0.00175351 -0.00167411 15.9994
3969 2 3.030220 16.971700 8.321290 -0.000284711 -0.00105448 -0.00126886 15.9994
1677 2 0.714063 10.749700 4.150520 -0.00465705 2.12859e-06 0.00253219 15.9994
2056 1 7.299340 16.473700 8.719080 -0.00749506 0.00294786 0.00883846 1.008
1916 2 0.515818 14.650300 2.491230 -0.00603577 -0.00946068 -0.000298358 15.9994
367 1 2.283180 9.302070 -0.013818 -0.00209827 -0.00220119 -0.000689034 1.008
2370 2 7.353810 15.955800 0.154546 0.00663418 -0.00792892 -0.000387652 15.9994
1915 1 0.441815 15.245500 3.237210 -0.0037032 -0.0300171 0.0161323 1.008
3777 2 4.797600 17.570300 2.007850 0.00370571 -0.00111107 -0.000905857 15.9994
1689 2 9.282220 9.978060 1.838020 0.00455244 0.00142607 -0.00532082 15.9994
3116 2 15.480600 9.764400 7.017100 -0.00185017 -0.00139115 -0.00415639 15.9994
2785 1 11.965800 10.105300 4.052800 0.010837 0.00654751 0.00605575 1.008
2786 2 12.315000 9.221780 4.169980 0.00225197 0.00275442 0.00231585 15.9994
3577 1 9.320240 12.418600 5.271880 0.00726727 -0.00506362 0.00148248 1.008
3578 2 8.937630 12.860400 6.029990 0.00477539 -0.00466718 -0.000103126 15.9994
3579 2 9.905660 11.761000 5.647470 0.00328678 -0.00716979 0.0038037 15.9994
1195 1 9.666710 15.631600 3.222870 0.00172968 -0.00324086 0.00125115 1.008
405 2 17.629700 12.971500 6.948000 0.00523422 -0.00184824 -0.00564217 15.9994
2787 2 11.736600 10.391900 4.936830 0.00160656 8.59749e-05 0.00566125 15.9994
1434 2 10.603000 12.984300 4.199450 0.000159867 -0.00133315 0.00105974 15.9994
1515 2 16.073700 15.421500 3.597980 -0.00162399 -0.00255891 0.00789989 15.9994
1196 2 10.123700 14.803500 3.075600 0.00614415 -0.00122581 0.00416964 15.9994
2662 1 11.475800 10.900800 6.637850 -0.000283477 0.00452548 0.00114703 1.008
1433 2 11.588600 12.487800 3.163120 -0.00339308 0.00348094 -0.00444877 15.9994
1432 1 11.196800 13.288000 3.512860 -0.00374541 0.00166 -0.000892289 1.008
838 1 10.248300 11.165300 0.623393 -0.00644143 -0.00311911 -0.0021779 1.008
1197 2 10.271900 16.300100 2.901860 0.00232122 -0.000482231 0.00837427 15.9994
256 1 13.334400 15.864000 0.577524 0.0176938 0.00598356 -0.00502009 1.008
2663 2 12.030100 11.658100 6.826210 0.00245717 0.00258604 0.000487105 15.9994
2389 1 12.710400 15.254000 5.102540 0.0144021 0.00254942 -0.0194795 1.008
2391 2 12.187500 14.734400 4.491900 -0.00937194 -0.00301994 0.0057219 15.9994
2390 2 13.246100 14.611100 5.567100 2.53815e-06 0.0025425 -0.0030395 15.9994
4179 2 15.239800 13.851300 2.244320 0.000422434 0.00161781 0.00366706 15.9994
258 2 13.774800 15.144300 1.029660 0.001092 -0.00232143 -0.00219034 15.9994
1955 2 13.009800 13.194800 7.727520 0.000944546 0.00136875 0.0010172 15.9994
4178 2 13.868200 13.231600 2.081260 -0.00133322 0.00706117 -0.00112603 15.9994
4177 1 14.503900 13.791300 1.635240 0.00902948 -0.00842344 -0.00562307 1.008
1956 2 14.054700 12.535800 6.852390 0.00165678 0.001625 0.00188431 15.9994
1954 1 13.227600 13.016000 6.812730 0.011137 0.0176523 0.000351128 1.008
3955 1 16.593500 16.980400 6.036010 -0.000539841 -0.00180833 0.00176953 1.008
3956 2 16.159200 17.029700 6.887610 -0.00613212 0.00639456 -0.00165326 15.9994
3486 2 12.651700 16.944700 4.772080 0.00530927 0.00138284 -0.00540612 15.9994
3820 1 15.837500 10.928000 3.317000 -0.0164844 -0.00194851 -0.0132682 1.008
3224 2 12.775600 10.888500 2.377040 -0.00310245 0.00104605 0.00435862 15.9994
3822 2 16.238000 10.059800 3.361560 0.00497375 0.00882288 0.00211364 15.9994
403 1 17.722200 12.128200 7.391350 0.0298478 0.00980443 0.0114014 1.008
3797 2 15.204800 11.141000 5.125390 0.000246273 0.00100092 0.00123738 15.9994
3798 2 16.119200 11.555700 6.258400 0.00206731 0.00170974 -0.000653963 15.9994
3796 1 15.262000 11.168700 6.080470 0.00742515 -0.0108352 0.00109852 1.008
840 2 9.647090 11.910200 0.620888 -0.00459933 -0.00173269 -0.00354658 15.9994
1514 2 16.189100 16.851200 4.082270 -0.00195821 0.000339611 -0.000952112 15.9994
1513 1 16.081500 16.327200 3.288470 -0.0134703 -0.00401833 0.0035839 1.008
506 2 15.884700 17.393500 1.793600 0.00370448 -0.00428366 -0.0026827 15.9994
505 1 15.495100 17.423200 0.919803 -0.00356988 0.0105437 0.00114179 1.008
507 2 14.707700 16.883300 0.989689 0.000661696 0.00393791 -0.00321555 15.9994
1106 2 11.088200 15.636100 6.355510 0.00322669 -0.00246945 0.00447262 15.9994
1105 1 10.620700 15.949100 7.129890 0.00780262 0.0251011 -0.00396038 1.008
2438 2 17.513400 13.863600 3.944370 -0.00291678 -0.00350501 0.000881309 15.9994
3223 1 12.905800 11.381500 1.566930 0.00286095 -0.0137896 -0.00367113 1.008
3398 2 14.066100 9.467560 0.869634 0.000822755 0.00402271 -0.00258422 15.9994
2437 1 16.851900 13.735500 3.264430 0.00460183 0.00264158 -0.00747859 1.008
1587 2 11.678000 16.401800 0.254141 0.00207113 7.99572e-05 -0.00392942 15.9994
1585 1 10.893500 16.950300 0.251476 0.00888621 0.00974037 0.00293756 1.008
3225 2 12.036400 11.422100 1.168390 0.00141371 -0.000849863 0.000911396 15.9994
114 2 8.973250 14.576500 7.194810 -0.000824118 0.00285083 0.00170339 15.9994
2664 2 11.905000 10.171900 7.085780 0.00389838 0.000960858 -0.00882816 15.9994
1107 2 11.272000 15.921800 7.830810 -0.00234131 0.000599796 0.00444682 15.9994
3821 2 16.158800 11.298700 2.495070 0.00241578 0.00525057 -0.00254784 15.9994
113 2 8.894360 13.333300 8.055240 0.000469741 0.00345138 0.00247595 15.9994
2683 1 15.615500 16.440500 8.488780 -0.002333 -0.00507527 0.000749842 1.008
2283 2 13.641700 16.351100 8.442160 0.00175866 3.97461e-05 -0.00900204 15.9994
2281 1 12.761200 16.533100 8.770390 0.00502882 0.000571334 -0.000738538 1.008
185 2 10.252500 9.438690 8.766630 0.000462915 0.000826476 0.00032059 15.9994
2684 2 16.422700 15.926800 8.463980 -0.00147447 -0.00352722 -0.000314366 15.9994
3654 2 9.584360 17.659100 6.260750 -0.00530332 0.00141522 0.000339073 15.9994
1859 2 17.563600 10.190200 0.702734 -0.00135879 0.00117942 0.00777647 15.9994
1858 1 17.161900 11.050700 0.822751 0.0112167 0.00779154 0.00152904 1.008
2439 2 17.230200 13.076100 2.682800 0.00591719 -0.000700852 -0.00270579 15.9994
2282 2 12.580500 17.429800 8.488400 0.002062 -0.00017658 -0.000957793 15.9994
902 2 17.771500 15.055600 1.511170 -0.00138612 0.00204212 0.000434083 15.9994
966 2 10.673600 17.690000 1.883030 -0.00185554 0.00365662 -0.000114357 15.9994
3957 2 17.247200 17.679200 6.059200 -0.00423445 0.00168089 -0.00263569 15.9994
1094 2 6.703130 7.477230 8.886710 -0.00892911 -0.00243573 -0.000636628 15.9994
1207 1 0.514462 6.526500 9.333940 -0.00780296 0.00592681 0.0067731 1.008
1208 2 0.594294 7.476800 9.251530 -0.00516465 0.00542151 0.00433652 15.9994
1572 2 0.428125 3.337550 11.878800 0.00327911 -0.00131774 -0.00313047 15.9994
3731 2 0.209578 1.054610 17.076100 -0.0026915 -0.000173424 0.00274155 15.9994
3730 1 0.543041 1.934680 16.901400 -0.000848435 -0.000669111 0.00420353 1.008
2188 1 0.241907 1.048210 9.640620 0.006818 0.00989716 0.00525036 1.008
950 2 3.274870 2.201520 9.260920 -0.0037605 -0.00528753 -0.00016035 15.9994
1209 2 1.046100 6.306440 10.098900 0.0034805 0.00469264 -0.00149768 15.9994
1632 2 8.843670 0.118361 12.231500 0.00423577 -0.00288907 -0.00338632 15.9994
1571 2 1.928530 3.270520 11.688600 0.00369378 -8.45128e-05 0.000669448 15.9994
3250 1 2.106220 6.206840 11.618100 -0.0264263 0.00628971 0.00680438 1.008
949 1 3.021140 2.153370 10.182600 -0.00247465 -0.00256722 0.000252112 1.008
951 2 3.772950 2.507880 10.657300 0.000719965 -0.00730346 -0.00144759 15.9994
2434 1 6.874520 2.612760 13.746000 -0.000733104 -0.001858 0.000108194 1.008
2436 2 7.685030 2.126800 13.898200 0.000735033 0.0010705 0.0011599 15.9994
1899 2 4.379820 7.614870 12.146300 0.000356461 -0.0030196 0.00418124 15.9994
1897 1 3.621020 8.076390 12.503300 -0.0033559 -0.00326211 -0.00351789 1.008
3251 2 2.173310 5.399840 12.128500 -0.00495312 0.00485185 0.00136576 15.9994
2049 2 6.234770 1.301520 15.451200 -0.00595951 -0.000942781 0.00404005 15.9994
3247 1 6.210810 4.911070 10.168600 -0.00328949 -0.00302556 0.0013007 1.008
2435 2 7.095910 3.520210 13.955200 -0.00442759 -0.00123708 0.000989131 15.9994
3248 2 5.797920 5.059790 9.317930 -0.00356349 -0.00373742 0.00139448 15.9994
2665 1 5.147680 2.752870 11.672400 0.00778017 -0.0099221 -0.00611883 1.008
2666 2 5.444470 3.449820 11.087200 0.00288439 -0.00196934 0.00100408 15.9994
3249 2 6.085310 5.732800 10.643200 0.000996832 -0.00110142 -0.00107192 15.9994
2667 2 5.879990 2.616060 12.273400 0.000806546 0.00316471 0.0052205 15.9994
3252 2 2.340670 6.900730 12.234300 0.00898329 0.00355107 -0.00399257 15.9994
1570 1 1.256350 3.479080 12.337300 0.0019329 -0.00221592 -0.000585146 1.008
2190 2 1.122320 1.419890 9.694990 0.0109703 0.000982784 -0.00238524 15.9994
1145 2 8.801890 5.512300 12.710000 0.00131801 -0.00210647 0.00714923 15.9994
4205 2 0.561432 6.793410 12.659000 -0.00206204 0.000908471 -0.000772695 15.9994
51 2 3.992690 7.194390 13.982100 0.00170294 -0.00414782 0.00182192 15.9994
2179 1 6.421220 7.116070 11.652600 0.00381938 -0.00378146 -0.012472 1.008
2181 2 6.719270 7.984250 11.381200 0.00519867 -0.000820368 -0.00125927 15.9994
2180 2 7.226600 6.614230 11.778100 0.00362193 -0.000588345 0.00109454 15.9994
3842 2 7.091260 7.860010 13.684100 -0.00377562 0.0051876 0.00373346 15.9994
3841 1 7.144600 7.584050 14.599100 -0.00828972 0.0171612 0.00752589 1.008
3843 2 6.270230 7.250750 14.800600 -0.00190281 -0.00394442 -3.6415e-05 15.9994
2047 1 6.077430 0.610939 16.095000 -0.00247476 -0.00501675 0.000407148 1.008
4207 1 7.934130 5.019640 14.124200 0.00521381 0.000815999 -3.877e-05 1.008
4209 2 7.743030 5.920430 14.385600 -0.00138319 -0.00220162 0.00530081 15.9994
4208 2 8.429320 4.656630 14.858600 0.00317506 -0.00153544 7.81424e-05 15.9994
2715 2 0.899007 3.642910 14.167600 -0.000559074 0.000744743 -0.000610111 15.9994
2713 1 1.262720 3.875210 15.022000 0.00793188 -0.00486385 -0.00275155 1.008
14 2 2.661360 6.483600 15.630300 -0.000907068 0.0024471 -0.000485066 15.9994
49 1 4.337300 6.638010 14.680600 -0.0204037 -0.00552875 0.0114842 1.008
50 2 4.234630 5.745800 14.349400 -0.00230437 -0.00437686 0.00305765 15.9994
2714 2 0.970043 3.175340 15.605800 0.00356534 -0.00225705 -0.00191726 15.9994
348 2 5.061430 5.955110 17.476900 0.00111032 0.00337282 0.00841845 15.9994
1630 1 8.219980 0.153888 12.956700 0.00729628 -0.0171635 -0.000186424 1.008
2189 2 0.254939 0.310165 10.250000 0.00755179 0.00399918 -0.00202796 15.9994
306 2 8.750950 2.314800 9.457130 0.00319747 0.00113945 -0.00398813 15.9994
3669 2 8.208610 4.632890 17.635200 -0.00181383 0.00832275 -0.00120655 15.9994
3667 1 8.821820 4.456470 16.921700 -0.0164372 0.00463437 -0.0127084 1.008
4204 1 0.029255 7.063040 13.407500 -0.00647598 -0.0102179 -3.3275e-07 1.008
2546 2 4.479140 3.547590 13.210700 0.00509792 -0.00673581 -0.00342333 15.9994
13 1 1.899430 6.385600 16.201300 -0.00156669 0.000707728 -0.00179112 1.008
2547 2 3.477310 3.453900 14.341800 0.00375705 0.000567147 -0.0041688 15.9994
15 2 1.351560 5.735790 15.761100 -0.00135598 0.00271349 -0.00485912 15.9994
2545 1 4.009740 4.080830 13.852200 0.0135949 -0.00420711 0.00057406 1.008
1970 2 8.740030 6.683590 9.958460 5.16654e-06 0.0030453 0.000875982 15.9994
1969 1 8.572690 6.894620 9.039930 -0.0280993 -0.018588 0.00111318 1.008
2061 2 1.753680 8.302840 16.209900 -0.00714993 0.00297145 0.00178963 15.9994
2703 2 0.951241 0.788835 12.442500 0.00210642 0.00126283 -0.00193927 15.9994
2048 2 6.945040 0.249377 16.276000 -2.52619e-05 0.00225889 0.0027913 15.9994
3732 2 0.233231 2.459580 17.639500 -0.00492341 9.45842e-05 0.0018408 15.9994
2052 2 5.519900 0.833939 11.961200 0.00831555 -0.000888008 -0.00340493 15.9994
694 1 17.569800 1.672140 13.046900 -0.0241844 0.0246081 -0.0228758 1.008
2455 1 16.377300 3.380170 9.751590 -0.000596239 0.00171276 -0.00136228 1.008
407 2 11.032000 2.017140 9.325710 0.000168333 -0.00367221 -0.00372906 15.9994
408 2 12.531200 2.089940 9.128100 0.00161771 -0.00446194 0.00790802 15.9994
12 2 15.419000 8.238470 9.024880 0.00465941 -0.00366116 -0.00661696 15.9994
28 1 14.624700 0.798473 14.933200 -0.0139375 0.000331412 0.00574273 1.008
1614 2 15.099500 1.929360 9.166210 -0.00307737 0.00122989 0.00323158 15.9994
2791 1 17.028900 2.481720 15.549100 -0.0014841 0.020398 -0.0123662 1.008
1816 1 9.464130 1.889540 15.537900 -0.0139196 -0.00270862 0.00158603 1.008
1818 2 9.449690 2.695130 16.054600 -0.00522904 -0.00481443 0.00493863 15.9994
4215 2 9.275740 7.339720 17.261200 -0.00323511 0.00576713 0.00207842 15.9994
304 1 9.148480 1.731130 10.103300 -0.00841946 0.00357428 0.00524823 1.008
3668 2 9.189780 5.312940 16.704200 0.0041481 -0.00164164 -0.00200364 15.9994
4213 1 10.062700 6.809170 17.385400 -0.00514673 0.00309606 0.00219643 1.008
1817 2 9.400130 1.187720 16.185600 -0.00489039 -0.00516016 -0.000317339 15.9994
11 2 15.741700 7.308020 10.174700 -0.00178254 -0.00197247 -0.00360124 15.9994
2456 2 17.129000 2.788070 9.776150 -0.00691288 -0.00590299 0.00578815 15.9994
10 1 15.115100 7.974720 9.893410 -0.000346141 -0.00264051 -0.00813605 1.008
1144 1 9.121620 5.630090 11.815500 0.00691723 0.00960116 0.0107775 1.008
696 2 17.706000 1.066850 12.318000 -0.00481999 0.000851028 0.000540795 15.9994
1146 2 9.774620 4.939610 11.701100 -0.00277968 0.00217126 0.000952772 15.9994
305 2 9.639690 2.313560 10.682700 -0.000669048 0.0034622 -0.00133228 15.9994
668 2 17.614400 6.042340 10.375900 -0.00201484 -0.00482222 -0.00256176 15.9994
2025 2 10.748400 6.550680 15.240500 0.00146652 0.00201765 -0.00665068 15.9994
3552 2 15.780400 1.750720 12.504600 -0.00225474 0.0116711 -0.00205244 15.9994
1148 2 11.552500 3.740070 11.490600 -0.00146909 0.00273899 -0.00449085 15.9994
1147 1 10.660200 3.457100 11.690800 0.00498819 -0.0157695 -0.00217 1.008
3550 1 14.825100 1.694630 12.527800 -0.00183687 0.00745272 0.0019381 1.008