LAMMPS data file via write_data, version 29 Sep 2021, timestep = 40000

4500 atoms
2 atom types
3000 bonds
1 bond types
1500 angles
1 angle types

-0.0325907907327867 35.59184079073162 xlo xhi
-0.0325907907327867 35.59184079073162 ylo yhi
-0.03253241809835217 35.5325424180981 zlo zhi

Masses

1 1.008
2 15.9994

Pair Coeffs # lj/cut/tip4p/long

1 0.155 3.1536
2 0 0

Bond Coeffs # harmonic

1 450 0.9572

Angle Coeffs # harmonic

1 55 104.52

Atoms # full

4258 1420 1 -1.04 6.0184474462216135 3.383789907819668 1.484717697062906 0 1 0
4260 1420 2 0.52 6.11757646699675 4.2947346573373215 1.7614575398148715 0 1 0
4259 1420 2 0.52 6.7412876020012416 2.923425871322544 1.9110965228652166 0 1 0
171 57 2 0.52 5.595823841581704 3.2050890745101293 5.545569459641855 0 0 0
169 57 1 -1.04 6.217547327130024 3.7031284402277658 6.076275157475618 0 0 0
170 57 2 0.52 6.9512594193191655 3.876811187608633 5.4865865031522825 0 0 0
3885 1295 2 0.52 6.986798181616561 6.380284608075108 1.9431273979567167 0 0 0
3883 1295 1 -1.04 6.64126395851624 6.033414503010717 2.7656351917672533 0 0 0
541 181 1 -1.04 2.4019988622180217 4.531330310219197 5.066513323965475 1 1 0
543 181 2 0.52 2.608889123861443 4.994595578417315 5.878186627036632 1 1 0
3884 1295 2 0.52 5.746127727412115 6.369481151753865 2.8106037960067742 0 0 0
542 181 2 0.52 2.007100370967727 3.7081401998334824 5.353993868996608 1 1 0
3055 1019 1 -1.04 4.33152331575121 2.854314551590457 3.9242078883866474 0 0 0
3057 1019 2 0.52 4.746311249056932 3.0519417454748 3.084489898451116 0 0 0
3056 1019 2 0.52 3.6428949610493477 3.5132476884931787 4.012694894167979 0 0 0
4174 1392 1 -1.04 4.111054109419865 1.7265791076544816 7.414852168644201 0 1 0
2523 841 2 0.52 2.8591532524795653 2.5261160096924375 1.116734968076738 1 0 0
3646 1216 1 -1.04 4.338066264199653 7.579654329712228 3.4053304488916654 1 0 0
3876 1292 2 0.52 1.6805079558289742 6.29566421617936 7.947474191753603 0 1 0
3874 1292 1 -1.04 2.3781020543390228 6.468631123073903 7.315274252775998 0 1 0
3875 1292 2 0.52 2.596751347369216 7.391360906644415 7.445635570540554 0 1 0
3647 1216 2 0.52 3.573613768093744 7.079094410964414 3.1202269783048835 1 0 0
2922 974 2 0.52 5.626731731954466 7.6363267545362525 4.853285383059847 0 0 0
2920 974 1 -1.04 6.073055807985511 7.85833135341452 5.670439357064705 0 0 0
3105 1035 2 0.52 0.2649151201313216 0.6071801471213902 4.746285750128753 0 0 1
930 310 2 0.52 7.684164317040032 4.974678910052969 3.6429622557088037 0 0 0
2921 974 2 0.52 6.963243720968903 8.087165976520646 5.403171635769837 0 0 0
2902 968 1 -1.04 1.6400074960686617 6.681198596321446 3.4692031440596502 1 0 0
1688 563 2 0.52 8.80415764538675 8.58800438777948 2.200102359166394 0 0 1
3447 1149 2 0.52 0.13621892876587693 1.7928848722115596 1.8938167985813232 0 0 1
2903 968 2 0.52 1.811332130863948 5.801363193271712 3.8050146582347515 1 0 0
2904 968 2 0.52 1.7245877857911476 7.250637726174128 4.23393649103955 1 0 0
2521 841 1 -1.04 3.625528877765686 1.975589837724438 0.9560452828272851 1 0 0
2522 841 2 0.52 4.36120970629079 2.587702316778528 0.9380488518790832 1 0 0
3648 1216 2 0.52 4.144919063062718 8.480807790863981 3.146779799797169 1 0 0
2015 672 2 0.52 1.45500360502526 4.472353974435317 1.2718601384078403 1 0 1
479 160 2 0.52 7.535122540818002 2.9295961214500132 7.312015495210374 1 0 0
4175 1392 2 0.52 4.364426349274994 2.6433707879305084 7.522217726657256 0 1 0
476 159 2 0.52 5.052328902180769 4.737096779126593 7.2419461235006795 1 0 0
478 160 1 -1.04 8.343035487016603 2.570112978063899 7.678458370684756 1 0 0
2424 808 2 0.52 2.697557112135231 1.8733531049321916 6.116399557821404 0 0 0
475 159 1 -1.04 4.316282674740013 4.675718594902384 7.850797919565674 1 0 0
2422 808 1 -1.04 1.8398693182622359 1.9285957771708289 5.695030675005873 0 0 0
2423 808 2 0.52 1.2557887429729189 1.4395792080842935 6.27463788400912 0 0 0
1095 365 2 0.52 6.152787823394936 7.765584654608265 7.5061812603077245 1 1 0
1093 365 1 -1.04 6.123176000021287 8.072844156964456 8.412242283709745 1 1 0
2014 672 1 -1.04 1.3688006666283667 3.8032531756350956 1.9509072755468218 1 0 1
4176 1392 2 0.52 4.814769992096637 1.342800501002413 6.891660255915564 0 1 0
2016 672 2 0.52 0.7089307455021402 4.152736032157053 2.549793959478031 1 0 1
2452 818 1 -1.04 8.779387226370758 0.7174696735735551 5.513062184536801 0 0 0
929 310 2 0.52 8.365411243947593 3.626132198028873 3.7389809093458006 0 0 0
4265 1422 2 0.52 8.401133795139666 1.3963643457445367 3.3028678685940482 0 1 0
2516 839 2 0.52 8.503461979553203 3.744184130584563 0.3516581090711211 1 1 0
2453 818 2 0.52 8.571327369970756 1.3432555085981233 6.206845309754915 0 0 0
4454 1485 2 0.52 1.198237536419434 8.662330141162549 1.1058582449807246 0 -1 0
4455 1485 2 0.52 0.7465743861683242 7.596046490264904 2.081017086560846 0 -1 0
4453 1485 1 -1.04 0.4320222964258261 8.355541551460645 1.5906538794807208 0 -1 0
680 227 2 0.52 6.966484939263054 0.25300448618952376 5.837198829402183 1 0 0
928 310 1 -1.04 8.021140609453434 4.340181791321925 4.27549069354644 0 0 0
4264 1422 1 -1.04 8.255721505481093 2.128774236626814 2.703983190417972 0 1 0
477 159 2 0.52 3.7892869217325464 5.453935452878938 7.669453390358992 1 0 0
1589 530 2 0.52 0.10282004641865489 0.37699620037566767 8.09985287382874 0 0 0
1759 587 1 -1.04 0.026905122289693124 5.212962722345083 0.040706832500692874 0 1 1
2981 994 2 0.52 0.9387345869701111 5.825417588846703 6.300592325249889 1 0 0
2980 994 1 -1.04 -0.014567889478720373 5.740906378356708 6.318030321064804 1 0 0
2966 989 2 0.52 4.363807749482363 0.9074839948016962 3.447085483606273 1 0 0
681 227 2 0.52 5.7341217045008435 0.4605328945203799 4.982735249651508 1 0 0
3474 1158 2 0.52 7.336432593654582 7.036549371782443 0.23468794753229993 0 1 1
3898 1300 1 -1.04 3.7618037069689754 6.7346160176572445 0.049043199034930825 1 0 1
3899 1300 2 0.52 4.710887082201612 6.844269423702435 0.10776898042364091 1 0 1
679 227 1 -1.04 6.063853026034551 0.5693561531946211 5.874736703670028 1 0 0
789 263 2 0.52 3.8760893765298006 0.23639039101347917 0.47451672644092757 0 0 1
3446 1149 2 0.52 0.1064806432259679 1.7107404424882198 0.3824389110836833 0 0 1
2225 742 2 0.52 5.642265020657059 0.7581079003001029 8.638298848897735 0 1 0
2965 989 1 -1.04 4.872299154909273 0.10426304153277399 3.5589086960298544 1 0 0
2967 989 2 0.52 5.340013329934963 -0.000977983742059688 2.730416320036484 1 0 0
4006 1336 1 -1.04 9.883393034399413 6.256291452382871 5.041694226037519 0 1 0
2807 936 2 0.52 10.826963007960856 0.32814903527506184 1.7365114063909826 1 1 1
2515 839 1 -1.04 9.148228514625481 4.4483964379874 0.41942964700011376 1 1 0
3264 1088 2 0.52 16.346470472506653 1.6706642416367692 4.818666307907501 1 2 0
480 160 2 0.52 8.976247334774559 3.284693924939288 7.61027724263873 1 0 0
4007 1336 2 0.52 9.171136693154805 5.725526061365304 4.6850279337490335 0 1 0
3164 1055 2 0.52 11.888425557615834 1.12348229376239 4.913254831244954 1 1 0
4008 1336 2 0.52 9.566816063344863 7.157313621850676 4.977119373924198 0 1 0
2454 818 2 0.52 9.729250639428109 0.7785171885576032 5.41174813097407 0 0 0
2502 834 2 0.52 9.945930879011268 5.664658873170865 6.916267257746064 0 0 0
4119 1373 2 0.52 12.159275696812783 7.114878127208241 2.9717578911744806 0 0 0
4117 1373 1 -1.04 12.398102830252522 6.985475243168294 3.889607733978357 0 0 0
4118 1373 2 0.52 11.680635575976483 6.466724334864194 4.253434717825449 0 0 0
2446 816 1 -1.04 13.28527203155982 4.580844846959 5.71524870640182 1 0 0
2447 816 2 0.52 13.301147297567242 3.9062261628791983 5.036375045828933 1 0 0
4242 1414 2 0.52 13.852899274890012 5.684336438961867 3.4548933563287694 1 0 1
2256 752 2 0.52 10.844446958473334 1.7050088967477943 0.1816562754474742 0 1 0
2255 752 2 0.52 10.850152658162402 3.0599324953294484 0.8569670770609632 0 1 0
2254 752 1 -1.04 10.46334922572287 2.186360987752075 0.9160243865322778 0 1 0
3117 1039 2 0.52 14.597993104799423 8.600220944498544 7.414088847654791 0 1 1
3115 1039 1 -1.04 15.514992575029353 8.866120937281922 7.345963922437746 0 1 1
4266 1422 2 0.52 9.073865040307483 2.2031488932274783 2.2127180818693253 0 1 0
2156 719 2 0.52 15.655703731885563 3.778556758028245 2.9047854547072 1 0 1
3017 1006 2 0.52 13.619558291984882 4.274032980715829 2.021586663686186 0 0 0
3018 1006 2 0.52 13.383808817522366 3.705436871632208 0.6384685046687184 0 0 0
3016 1006 1 -1.04 13.306426424537415 3.4913313903758447 1.5682010727504778 0 0 0
718 240 1 -1.04 15.894751099624505 4.191771493114229 6.81454795485989 0 0 0
720 240 2 0.52 15.009015573627034 4.3146416564520145 6.473069784331632 0 0 0
4241 1414 2 0.52 14.546191729995698 6.02786182484466 2.153651229464647 1 0 1
4240 1414 1 -1.04 14.548827066671777 5.389958505104896 2.867306783401973 1 0 1
2500 834 1 -1.04 9.77447810914009 5.070029834632812 7.646508378356792 0 0 0
2501 834 2 0.52 10.64255514796275 4.790628760891533 7.937384872183817 0 0 0
2954 985 2 0.52 15.912741461159989 7.702115557757848 6.19652086717435 0 1 0
2955 985 2 0.52 16.19156297031376 6.285306709117827 5.741761101774195 0 1 0
2953 985 1 -1.04 16.23806202937545 7.196348238876349 5.451807642471451 0 1 0
719 240 2 0.52 15.76782942987583 3.7723721141206554 7.665563166620534 0 0 0
24 8 2 0.52 12.724402877570263 7.54698839603107 1.1452661677227154 0 1 1
22 8 1 -1.04 11.819298612492837 7.23596275211591 1.128498396081498 0 1 1
23 8 2 0.52 11.799312378349565 6.593801704600685 0.4189481304209746 0 1 1
1828 610 1 -1.04 9.120004926921494 7.102633277805204 1.1589342926884765 1 -1 0
1830 610 2 0.52 9.978141590278465 7.424494476310093 0.8828207727377844 1 -1 0
1829 610 2 0.52 9.11034140867539 6.184024520402939 0.8900543803875105 1 -1 0
3980 1327 2 0.52 12.809728163982541 2.6645470858125675 3.2518261510278306 0 0 0
1971 657 2 0.52 9.021548540195392 6.205754888916167 8.54980280219064 0 1 0
3979 1327 1 -1.04 13.033140107411278 2.489276474544196 4.165937280135778 0 0 0
2448 816 2 0.52 12.686201269815008 4.239250647166931 6.379070568870137 1 0 0
38 13 2 0.52 12.887523762840312 6.524957615067321 7.6809883867997994 0 0 0
39 13 2 0.52 13.028510740100321 6.948133953166495 6.23428881505233 0 0 0
37 13 1 -1.04 13.00693089695908 7.295600095338665 7.125935286706869 0 0 0
3263 1088 2 0.52 16.347622217219357 2.61298637957505 6.003538813122218 1 2 0
406 136 1 -1.04 11.703102683884984 2.3953517427121813 8.757578389344522 0 1 0
3981 1327 2 0.52 13.923308676703476 2.1389704250372232 4.132509298995744 0 0 0
3262 1088 1 -1.04 16.848036278558453 1.903850657178611 5.599875420633635 1 2 0
553 185 1 -1.04 14.76021833293218 0.6240024093188884 0.9841592535389447 0 0 0
3399 1133 2 0.52 15.090341594906171 8.861005819354913 1.8049853088562235 1 1 1
3397 1133 1 -1.04 14.22856998795012 8.701510016158043 1.4200923026753243 1 1 1
186 62 2 0.52 8.89391628833179 8.771544114420099 8.732530911011693 0 1 0
2155 719 1 -1.04 15.973619590958588 2.891210068280669 2.7381205251512784 1 0 1
2157 719 2 0.52 15.413276942265565 2.5637182927854085 2.0345602270682708 1 0 1
1613 538 2 0.52 15.570120847921334 1.3930023770355446 7.831027914119771 0 1 0
3768 1256 2 0.52 12.772260957676515 3.9238919636586838 8.554884696074993 -1 0 0
3766 1256 1 -1.04 12.8100667108578 4.873221686046846 8.438370133822838 -1 0 0
1612 538 1 -1.04 14.778144656226676 1.6079077667473354 8.323796851109154 0 1 0
1822 608 1 -1.04 16.91200127841541 8.30688648589834 3.0856593261909295 0 0 1
3163 1055 1 -1.04 11.406256865460767 0.30755581886950323 5.047453116905913 1 1 0
2571 857 2 0.52 17.751169894742496 8.449323439171744 1.3893474500771368 -1 1 0
4216 1406 1 -1.04 17.052814726791595 0.029816039336993696 7.5405035144147 1 1 0
1824 608 2 0.52 16.541129598650635 7.909306737164498 3.8734514183987585 0 0 1
2258 753 2 0.52 17.333147769988987 8.54843873673389 7.85627667098413 -1 0 0
555 185 2 0.52 14.31509521879179 1.0082417987817405 0.2288729867214047 0 0 0
4218 1406 2 0.52 17.10486216076994 0.6585660404139507 6.820644958334412 1 1 0
3331 1111 1 -1.04 14.897128388736013 0.18171037898969375 4.419196652219297 1 0 0
284 95 2 0.52 14.279038280962865 0.1422851537631121 7.568854775829197 1 1 0
2989 997 1 -1.04 2.912030439164593 9.500568113203762 7.188762665022895 1 -1 0
1687 563 1 -1.04 8.780104149442924 9.497857667511363 2.496447223630108 0 0 1
2555 852 2 0.52 0.6579388397356916 17.75655753901767 7.979406545180292 1 0 0
843 281 2 0.52 1.9345244356630575 14.57712228179637 5.027170956638734 1 0 0
2587 863 1 -1.04 5.2952541581261885 16.90715686671221 3.504304718318295 0 0 0
3394 1132 1 -1.04 4.948332025984584 14.516446956656804 2.0281058330986226 0 0 1
2589 863 2 0.52 5.7973648996931795 16.16588767174569 3.8428850245924977 0 0 0
1371 457 2 0.52 1.5972846936753673 14.723849882944656 0.89755151824302 1 -1 0
4227 1409 2 0.52 1.9815039463896247 10.971993608114435 0.8767097631522869 0 0 1
4226 1409 2 0.52 2.583810680226652 11.614749153588951 2.107964041891892 0 0 1
4225 1409 1 -1.04 1.9426708386938754 11.763879446227572 1.4130311678552374 0 0 1
3711 1237 2 0.52 5.589609901697908 14.930515635079871 5.6796187921582675 0 0 0
3709 1237 1 -1.04 4.680192390960324 14.743923914904075 5.91280361397498 0 0 0
3710 1237 2 0.52 4.713093531985094 13.889074249900567 6.342200173302906 0 0 0
2538 846 2 0.52 8.636411397189203 9.374369822111987 4.574924756624281 0 0 0
4257 1419 2 0.52 2.180583819464759 11.900798387540997 5.355087646150346 -1 0 1
4255 1419 1 -1.04 2.245146561730961 10.986070349045873 5.0806134071006115 -1 0 1
4256 1419 2 0.52 2.242945109934384 10.48927956311288 5.898797927011657 -1 0 1
4180 1394 1 -1.04 7.272909060515263 14.793026415075394 4.067726993804811 0 0 0
4182 1394 2 0.52 8.11962841694378 15.043424789176047 3.6981342101942163 0 0 0
123 41 2 0.52 3.2388494650224877 10.324085605310554 3.7311698442441017 1 1 0
122 41 2 0.52 4.5423668571401326 10.72867254612623 3.076153044805733 1 1 0
121 41 1 -1.04 3.765971782819935 10.18451968451625 2.9444708828664443 1 1 0
3774 1258 2 0.52 5.579524884126476 12.769646902748423 2.8844214166520277 1 1 1
3772 1258 1 -1.04 6.120719395097332 12.01415001184591 3.1136915392839377 1 1 1
3773 1258 2 0.52 6.642570929542989 11.845818979516297 2.3291104538940597 1 1 1
842 281 2 0.52 3.023087727433989 14.151201559723752 5.989208736612176 1 0 0
2990 997 2 0.52 3.755249435788055 9.951647850989389 7.230483569765865 1 -1 0
2536 846 1 -1.04 8.665356667177138 8.939533509306408 5.427163803142905 0 0 0
2537 846 2 0.52 8.288624588456539 9.576352085407327 6.034425593473611 0 0 0
2464 822 1 -1.04 2.74843057853732 16.132135426247714 0.2569467194389318 0 0 1
2465 822 2 0.52 3.6401713913822324 16.379548649104915 0.5015215747738742 0 0 1
4181 1394 2 0.52 7.2033902888539565 13.854292503490763 3.8940099145416522 0 0 0
2433 811 2 0.52 5.783121794034546 10.3613526359506 6.384583866312735 0 0 0
2588 863 2 0.52 5.214124420448121 17.502456438785106 4.249467938796946 0 0 0
3396 1132 2 0.52 4.649215682530002 15.255414384099481 2.557906167429502 0 0 1
3395 1132 2 0.52 5.686042310258215 14.863694420743933 1.5266733100589058 0 0 1
3232 1078 1 -1.04 7.8881906376780755 12.857562849597668 0.7223801962732663 -1 -1 1
3234 1078 2 0.52 7.949102265166735 13.807327556507206 0.8246964469166717 -1 -1 1
2368 790 1 -1.04 7.176282358111158 15.539169249534625 0.9978474982513448 0 1 0
2369 790 2 0.52 7.925242899704487 15.775918254948923 1.5448757018858277 0 1 0
3392 1131 2 0.52 2.4123247803604313 17.34516244826222 4.450377697441289 0 0 0
4289 1430 2 0.52 4.062910592450266 17.30523860182596 6.396115619910261 0 0 1
2991 997 2 0.52 2.494767809038601 9.693663442845502 8.028308930079733 1 -1 0
2431 811 1 -1.04 5.505584621547323 10.652166979928417 7.25327942588729 0 0 0
2432 811 2 0.52 5.904680727878895 10.024197550310907 7.855449280145071 0 0 0
1369 457 1 -1.04 0.8456611227719053 14.136615888087254 0.9778639266625467 1 -1 0
987 329 2 0.52 4.5488506770225134 11.91710611230311 7.76588353243318 1 1 0
2466 822 2 0.52 2.2224636828535274 16.908121887724544 0.4504297322576867 0 0 1
841 281 1 -1.04 2.203543404148207 13.854110524961815 5.593840731793715 1 0 0
1370 457 2 0.52 1.223671879540657 13.297652162131842 1.241453710793358 1 -1 0
3967 1323 1 -1.04 3.9465533769689642 17.23766881460598 8.397645215135537 0 0 0
985 329 1 -1.04 4.220110068017032 12.80232391234823 7.922570795712561 1 1 0
1847 616 2 0.52 6.844034751082195 13.788645861442262 8.501317922909807 0 0 0
3393 1131 2 0.52 1.2323025322973271 16.631278539619725 3.826028075165703 0 0 0
3391 1131 1 -1.04 1.5342859865884773 17.497040957574672 4.10078845984877 0 0 0
3645 1215 2 0.52 3.8665758142436557 11.917121618903794 0.21871968015481252 1 0 0
1676 559 2 0.52 0.2994244898723081 10.025755464434393 2.8872560204002564 1 0 0
112 38 1 -1.04 8.409662792688797 13.829207118213416 7.395378104978055 0 -1 0
1505 502 2 0.52 0.38239481259788044 13.7204895105604 5.96655785437158 1 0 0
2554 852 1 -1.04 1.1472076627816938 17.220310022278476 8.603334793928678 1 0 0
2018 673 2 0.52 2.440979641272338 13.119039638960453 8.629960318724127 1 0 0
3968 1323 2 0.52 4.409498063869673 16.436254473295335 8.641876888781747 0 0 0
986 329 2 0.52 4.840907945475733 13.182337459903648 8.544206974692774 1 1 0
3969 1323 2 0.52 3.030220152228996 16.97170837963365 8.321288759828995 0 0 0
1677 559 2 0.52 0.714062549184228 10.74973393130436 4.150515950524263 1 0 0
2056 686 1 -1.04 7.299336099438337 16.473701052320003 8.719082916328684 0 0 0
1916 639 2 0.52 0.5158176539535684 14.65034843536439 2.491225490079073 1 0 0
367 123 1 -1.04 2.2831753655614455 9.30207066254474 -0.013817982357501783 0 0 0
2370 790 2 0.52 7.353813638799465 15.955770979253732 0.15454596073809052 0 1 0
1915 639 1 -1.04 0.44181495061121584 15.245543613728753 3.2372135191719247 1 0 0
3777 1259 2 0.52 4.797597178868408 17.57031861111183 2.0078469283222122 0 1 0
1689 563 2 0.52 9.282217288508994 9.978059768352216 1.8380247316652225 0 0 1
3116 1039 2 0.52 15.48059853609204 9.76439573377764 7.017100303187826 0 1 1
2785 929 1 -1.04 11.965842579456003 10.105273481648506 4.052795660356478 0 0 0
2786 929 2 0.52 12.31504766390579 9.221782667237417 4.169977697570581 0 0 0
3577 1193 1 -1.04 9.32023971852179 12.418644309510183 5.2718795681793305 0 0 0
3578 1193 2 0.52 8.937632738970708 12.86035586464055 6.029992120023124 0 0 0
3579 1193 2 0.52 9.905661955141998 11.761040805619132 5.647472801000166 0 0 0
1195 399 1 -1.04 9.666710516151866 15.631553220195146 3.222867523626134 0 1 1
405 135 2 0.52 17.62969373965495 12.971492665261296 6.948004417641533 1 1 0
2787 929 2 0.52 11.736642446845954 10.39194426160324 4.93683129489373 0 0 0
1434 478 2 0.52 10.602998384536765 12.984296771471412 4.199452787102758 0 0 0
1515 505 2 0.52 16.07372539745013 15.421499023118676 3.5979778098817436 -1 0 1
1196 399 2 0.52 10.123748968900559 14.80350654893119 3.0756044837357166 0 1 1
2662 888 1 -1.04 11.475817618437304 10.90081712031992 6.63785239814486 0 0 0
1433 478 2 0.52 11.588589886922913 12.487794083782187 3.163118061582163 0 0 0
1432 478 1 -1.04 11.196769358357361 13.288037214795557 3.512860030268409 0 0 0
838 280 1 -1.04 10.248282537864897 11.165329329444996 0.6233926334004655 0 0 1
1197 399 2 0.52 10.271890398826978 16.300089608745488 2.901856235990631 0 1 1
256 86 1 -1.04 13.3344268792573 15.863976056864637 0.5775239215801214 -1 0 0
2663 888 2 0.52 12.030136674797713 11.658103093864751 6.826214225562092 0 0 0
2389 797 1 -1.04 12.710411125751168 15.254022967172018 5.102539255076075 1 0 1
2391 797 2 0.52 12.187543017130096 14.734441630371927 4.491903508140102 1 0 1
2390 797 2 0.52 13.246134082043906 14.611051069368566 5.567103451647438 1 0 1
4179 1393 2 0.52 15.239822898565603 13.851330423470241 2.244323304351261 0 0 1
258 86 2 0.52 13.774768269823484 15.14432182581477 1.0296622715198975 -1 0 0
1955 652 2 0.52 13.009799573611907 13.194784982059133 7.727517907613135 0 -1 0
4178 1393 2 0.52 13.868229080848812 13.231625081745255 2.0812562003208948 0 0 1
4177 1393 1 -1.04 14.503854460262682 13.791340217189614 1.6352391780005837 0 0 1
1956 652 2 0.52 14.05466069280109 12.535767425595399 6.852385749789211 0 -1 0
1954 652 1 -1.04 13.227601701151297 13.016009897763535 6.812731843839523 0 -1 0
3955 1319 1 -1.04 16.593490368805828 16.98044364699637 6.036007918751858 1 0 0
3956 1319 2 0.52 16.159233930572135 17.029699606738127 6.887610546908034 1 0 0
3486 1162 2 0.52 12.6517043682357 16.944684443684306 4.772078710870105 1 -1 0
3820 1274 1 -1.04 15.837482831800871 10.928017441431207 3.3170024942831184 0 0 1
3224 1075 2 0.52 12.775584636231743 10.888532081040044 2.377043779148989 1 1 1
3822 1274 2 0.52 16.238038165798265 10.05979974939969 3.361559240682566 0 0 1
403 135 1 -1.04 17.722226880413917 12.128218144318602 7.391352520366864 1 1 0
3797 1266 2 0.52 15.204751457897105 11.140989631477037 5.125386885382773 0 0 0
3798 1266 2 0.52 16.11919269127929 11.55569957038906 6.2583953094628 0 0 0
3796 1266 1 -1.04 15.261963253742104 11.16874615144745 6.080472340206227 0 0 0
840 280 2 0.52 9.64708578448149 11.910170274060189 0.6208884477044588 0 0 1
1514 505 2 0.52 16.189094604827737 16.851198993115062 4.082274344620176 -1 0 1
1513 505 1 -1.04 16.08148284165028 16.32724563850927 3.2884705712459374 -1 0 1
506 169 2 0.52 15.884705153462404 17.39351519310269 1.7935996082833867 0 0 0
505 169 1 -1.04 15.4950501371014 17.423181604131027 0.9198028857664137 0 0 0
507 169 2 0.52 14.707695275377421 16.8833481866149 0.9896888146253334 0 0 0
1106 369 2 0.52 11.088182849013696 15.636086236211469 6.355513477068408 0 0 0
1105 369 1 -1.04 10.620655108460875 15.949132953261259 7.129885096355893 0 0 0
2438 813 2 0.52 17.513358314635795 13.863618688365086 3.944366705546879 0 0 0
3223 1075 1 -1.04 12.905751772432698 11.381479278093035 1.5669256287716247 1 1 1
3398 1133 2 0.52 14.066079896329079 9.467555035996801 0.8696344589622713 1 1 1
2437 813 1 -1.04 16.851916766949838 13.735509791105155 3.264429186772065 0 0 0
1587 529 2 0.52 11.677999134357291 16.40184653424951 0.254140973507528 0 1 0
1585 529 1 -1.04 10.893533783665712 16.950334321545256 0.25147624992820355 0 1 0
3225 1075 2 0.52 12.036409661494863 11.422088650487504 1.1683945596893293 1 1 1
114 38 2 0.52 8.973245784763229 14.576455249755346 7.194813200392217 0 -1 0
2664 888 2 0.52 11.905047895295812 10.171874471846943 7.085776303138968 0 0 0
1107 369 2 0.52 11.271951430541229 15.921781983759383 7.830810816608697 0 0 0
3821 1274 2 0.52 16.15883468944372 11.298675871870477 2.4950674898370315 0 0 1
113 38 2 0.52 8.894359672860423 13.333336760765905 8.055236698130232 0 -1 0
2683 895 1 -1.04 15.615450870579247 16.440541549532192 8.488784408702283 -1 0 0
2283 761 2 0.52 13.641695706844207 16.351068785319733 8.442161693120845 0 -1 0
2281 761 1 -1.04 12.761150117253687 16.53309891503876 8.770393831290097 0 -1 0
185 62 2 0.52 10.252463596320908 9.43868841883058 8.766631949506607 0 1 0
2684 895 2 0.52 16.4227250179243 15.92680519550435 8.463980183689255 -1 0 0
3654 1218 2 0.52 9.584359072992559 17.659064967865074 6.260753726136539 1 0 0
1859 620 2 0.52 17.563581309757826 10.190217440559636 0.7027337442821731 -1 0 1
1858 620 1 -1.04 17.161910239130023 11.050733652546242 0.8227505761389357 -1 0 1
2439 813 2 0.52 17.230231688372363 13.076105610019304 2.682797184389487 0 0 0
2282 761 2 0.52 12.580526437617861 17.429807417516226 8.48839952649046 0 -1 0
902 301 2 0.52 17.77148931159217 15.055635786314381 1.5111697758655607 0 1 1
966 322 2 0.52 10.67361542298744 17.689983354823372 1.88303488838278 0 0 0
3957 1319 2 0.52 17.24722387612179 17.67924718464336 6.0592018227877675 1 0 0
1094 365 2 0.52 6.703132884258218 7.477226538093144 8.886711992454423 1 1 0
1207 403 1 -1.04 0.5144618661306726 6.526496546579292 9.333943453157739 1 1 0
1208 403 2 0.52 0.5942941577966211 7.476795080847933 9.25153386042585 1 1 0
1572 524 2 0.52 0.4281250471988758 3.337550110321876 11.878827811731256 1 0 0
3731 1244 2 0.52 0.20957785279867022 1.0546102047062795 17.076071284319614 0 0 0
3730 1244 1 -1.04 0.5430412118799374 1.9346799412483597 16.901396480833274 0 0 0
2188 730 1 -1.04 0.24190661207286127 1.0482126236026261 9.640621105584106 1 0 0
950 317 2 0.52 3.274868956963922 2.201521017646305 9.2609223360555 1 0 0
1209 403 2 0.52 1.0461047481668482 6.306441485431347 10.098903227291936 1 1 0
1632 544 2 0.52 8.843670102455794 0.11836071803097822 12.231491329891709 1 -1 1
1571 524 2 0.52 1.9285262242831696 3.270524361543383 11.68856733611164 1 0 0
3250 1084 1 -1.04 2.106217975376765 6.206840964187697 11.618080489769586 1 0 0
949 317 1 -1.04 3.0211421446592905 2.1533682667687053 10.182625030692252 1 0 0
951 317 2 0.52 3.7729463437689006 2.5078751614815604 10.657332464594658 1 0 0
2434 812 1 -1.04 6.8745232264171 2.6127607456473316 13.74602590650074 1 1 0
2436 812 2 0.52 7.685026529608363 2.1268009021065497 13.898207593907179 1 1 0
1899 633 2 0.52 4.379823407665389 7.614870320129492 12.14633287364855 0 1 0
1897 633 1 -1.04 3.621021159132034 8.07639192874009 12.503332582900828 0 1 0
3251 1084 2 0.52 2.1733092991998326 5.399843285101467 12.128458134477016 1 0 0
2049 683 2 0.52 6.234770593083781 1.3015154589524613 15.4511521353048 -1 0 0
3247 1083 1 -1.04 6.210810738293949 4.911074700472878 10.16859835241227 0 0 0
2435 812 2 0.52 7.095912950201341 3.5202113973606735 13.955195084220042 1 1 0
3248 1083 2 0.52 5.797923123861016 5.059789213962356 9.317928233432255 0 0 0
2665 889 1 -1.04 5.147681668530902 2.7528704140661104 11.672353020620827 0 0 0
2666 889 2 0.52 5.444467355932999 3.4498200935237757 11.08719386273545 0 0 0
3249 1083 2 0.52 6.085310365733552 5.732797361790392 10.64320699578538 0 0 0
2667 889 2 0.52 5.879987358567431 2.616055622742309 12.273387070584013 0 0 0
3252 1084 2 0.52 2.3406694731125732 6.900734609257785 12.234340130295221 1 0 0
1570 524 1 -1.04 1.2563517029036655 3.47908424226835 12.337347752708983 1 0 0
2190 730 2 0.52 1.1223213808615569 1.4198928914065583 9.694985187696702 1 0 0
1145 382 2 0.52 8.801887273786164 5.512299310803396 12.709959699163486 0 1 0
4205 1402 2 0.52 0.5614318481108445 6.793414845776717 12.658971974708109 0 0 0
51 17 2 0.52 3.992693642579602 7.194388357777579 13.982071654567743 2 0 0
2179 727 1 -1.04 6.42122182383613 7.116066879422455 11.652569656484344 -1 0 0
2181 727 2 0.52 6.719274143647179 7.984253089984501 11.381185503584497 -1 0 0
2180 727 2 0.52 7.226596626060758 6.614226380547687 11.778106032211726 -1 0 0
3842 1281 2 0.52 7.091255747469206 7.86000739456191 13.684086292040313 1 0 0
3841 1281 1 -1.04 7.144603647699863 7.584054178932504 14.59909211952163 1 0 0
3843 1281 2 0.52 6.270226609296814 7.2507546465434345 14.800606527003428 1 0 0
2047 683 1 -1.04 6.07743276518656 0.6109390120051349 16.095031641760933 -1 0 0
4207 1403 1 -1.04 7.9341333204038795 5.019641961638062 14.124228753870153 0 0 0
4209 1403 2 0.52 7.743027698207836 5.920425931186465 14.38556899449468 0 0 0
4208 1403 2 0.52 8.429315585389602 4.656630280544665 14.858564429044222 0 0 0
2715 905 2 0.52 0.8990072242678907 3.642911621875356 14.167628222716552 1 0 0
2713 905 1 -1.04 1.262722395651848 3.875205045717189 15.022018578084037 1 0 0
14 5 2 0.52 2.6613639914971894 6.483601515011021 15.63027786683413 0 1 0
49 17 1 -1.04 4.337301811670826 6.638010270989399 14.680584699784164 2 0 0
50 17 2 0.52 4.234626323509509 5.7458022673138665 14.349443548146143 2 0 0
2714 905 2 0.52 0.9700434428591762 3.175335493547878 15.605759514235094 1 0 0
348 116 2 0.52 5.061432443183447 5.955113889915058 17.476870968009187 1 0 0
1630 544 1 -1.04 8.219980634253425 0.15388774803885188 12.956736886508407 1 -1 1
2189 730 2 0.52 0.2549386566423725 0.31016460551970343 10.250003685592928 1 0 0
306 102 2 0.52 8.750948477397355 2.3148005773479117 9.45712862772903 1 1 1
3669 1223 2 0.52 8.2086103779322 4.632893120198115 17.635202963983218 0 -1 0
3667 1223 1 -1.04 8.82181799147812 4.456470466642113 16.921702221165404 0 -1 0
4204 1402 1 -1.04 0.02925522543193609 7.063038292628789 13.407519287295415 0 0 0
2546 849 2 0.52 4.47914330695513 3.5475921164369706 13.21067158264334 0 0 0
13 5 1 -1.04 1.899425176565314 6.385602247771404 16.20130958742477 0 1 0
2547 849 2 0.52 3.4773108545607347 3.453896573272034 14.341798487238359 0 0 0
15 5 2 0.52 1.3515648484441556 5.735791633586048 15.761051632853784 0 1 0
2545 849 1 -1.04 4.009743722315188 4.080825501555751 13.852199467411113 0 0 0
1970 657 2 0.52 8.74003237966819 6.683591782274361 9.9584602291352 0 1 0
1969 657 1 -1.04 8.572688569214646 6.894617043122943 9.03993084561681 0 1 0
2061 687 2 0.52 1.753678783779021 8.302842088158064 16.209923217762487 0 1 0
2703 901 2 0.52 0.9512411299705582 0.7888348843431845 12.442474794075798 1 1 0
2048 683 2 0.52 6.945042473033946 0.24937743375988033 16.27602462501104 -1 0 0
3732 1244 2 0.52 0.2332312009030725 2.459577522993794 17.639456184228813 0 0 0
2052 684 2 0.52 5.5199025229576915 0.8339392451287763 11.961210770430899 0 0 0
694 232 1 -1.04 17.569753904219986 1.6721442562000406 13.04685505808497 0 0 0
2455 819 1 -1.04 16.377265448662992 3.38016974773769 9.75158952823966 0 0 0
407 136 2 0.52 11.031975284970834 2.01713551816163 9.325708957007848 0 1 0
408 136 2 0.52 12.531156316795682 2.0899415198551385 9.128096427768838 0 1 0
12 4 2 0.52 15.418954369472583 8.238467936515114 9.024878856074027 0 1 1
28 10 1 -1.04 14.624744811872459 0.7984734035184812 14.933203773943866 0 0 0
1614 538 2 0.52 15.09946620465999 1.9293605112779573 9.166205561620952 0 1 0
2791 931 1 -1.04 17.02890123843001 2.481715565883268 15.549081911805612 0 1 0
1816 606 1 -1.04 9.464128594341982 1.8895383992969466 15.537877243838851 0 0 0
1818 606 2 0.52 9.449692950540369 2.6951250067772694 16.054649601880936 0 0 0
4215 1405 2 0.52 9.275741509925396 7.339718156888253 17.261213580782428 1 1 0
304 102 1 -1.04 9.148482565147729 1.731129673672998 10.103291738158424 1 1 1
3668 1223 2 0.52 9.189783419978577 5.312935934638859 16.70421616285915 0 -1 0
4213 1405 1 -1.04 10.062721676745815 6.809170214400266 17.38536243399127 1 1 0
1817 606 2 0.52 9.400129879844528 1.1877154938708965 16.18562766951375 0 0 0
11 4 2 0.52 15.741717018058658 7.308015170776115 10.17465149237418 0 1 1
2456 819 2 0.52 17.128962639271595 2.7880719180887796 9.776152381416404 0 0 0
10 4 1 -1.04 15.115106653402293 7.974719043325394 9.89340918184283 0 1 1