ITEM: TIMESTEP
0
ITEM: NUMBER OF ATOMS
4500
ITEM: BOX BOUNDS
0.000000 36.164019
0.000000 36.164019
0.000000 36.103763
ITEM: ATOMS id type x y z vx vy vz mass
650 2 6.780400 7.627120 1.312340 -0.0114671 0.00528051 -0.00126133 15.9994
651 2 7.333150 6.527720 0.430474 0.000445034 0.00524763 0.00634692 15.9994
649 1 7.530980 7.403620 0.761961 -0.0117165 0.0119542 -0.00424561 1.008
3150 2 1.457790 5.178850 6.016620 -0.00840292 0.00359327 0.000504017 15.9994
3148 1 2.000090 5.959950 6.126220 -0.00926075 0.00473561 -0.00368097 1.008
4040 2 5.143420 3.728070 5.300520 -0.00207828 -0.00932535 -0.00127048 15.9994
307 1 4.448190 5.344370 4.894480 0.000821562 -0.000253366 0.000860581 1.008
4039 1 5.236560 2.847830 5.664860 0.00388 -0.0090327 -0.00219652 1.008
309 2 5.297520 5.752660 5.062290 0.00263875 -0.00483171 0.00261019 15.9994
308 2 4.432250 5.204020 3.947760 0.00442748 -0.00544406 0.00160251 15.9994
4405 1 8.266140 8.650940 4.797910 0.00503424 -0.00306067 0.000178887 1.008
4406 2 8.723890 8.476370 3.975580 0.0018365 0.00512669 -0.0032989 15.9994
1141 1 6.719230 4.298380 2.452830 0.00449168 0.00148325 -0.0077838 1.008
4302 2 4.652200 1.808740 4.273150 -0.00819436 0.00110482 0.00431865 15.9994
4119 2 4.457560 8.021250 4.373730 -0.00157695 0.00409474 0.00273558 15.9994
3435 2 5.191630 4.650160 2.293030 -0.00115531 -0.00148603 -0.00184405 15.9994
1142 2 7.108190 3.446060 2.256640 0.00354581 -0.00130933 0.00265371 15.9994
1879 1 6.045720 1.354220 1.477490 0.00124828 -0.00432304 0.00398801 1.008
4300 1 4.449770 1.131300 3.627920 0.00198582 -0.00665905 0.00931819 1.008
1143 2 7.313500 4.692060 3.091640 -0.00219796 0.00309255 -0.00260747 15.9994
1880 2 6.095290 0.431873 1.226390 0.00873532 -0.00248596 -0.00111374 15.9994
4301 2 5.134300 1.219360 2.964670 0.00130063 -0.00199552 0.00928056 15.9994
3513 2 1.706240 2.293430 5.977050 -0.00285936 -0.00590517 0.00608899 15.9994
3511 1 1.157740 3.055600 6.162710 0.0145356 0.00725492 0.00327315 1.008
39 2 2.493290 5.415340 2.530460 0.00113593 -0.0041333 0.00179376 15.9994
3434 2 4.452100 5.423360 1.221980 -0.00445168 0.000500282 0.00194891 15.9994
3433 1 4.346650 5.056170 2.099640 -0.0011925 0.00027952 0.00220772 1.008
3149 2 2.730620 5.831760 5.521140 -0.007808 0.00108063 -0.00110077 15.9994
37 1 1.664420 5.836610 2.757910 0.000287488 -0.00440738 -0.000953061 1.008
3315 2 1.072470 7.747840 6.400240 -0.0018569 -0.00200034 -0.00101602 15.9994
3290 2 0.718456 0.924435 0.460648 -0.00204519 0.00545178 0.00484801 15.9994
38 2 1.151860 5.146300 3.178610 0.00102988 -0.00321604 0.00181808 15.9994
4118 2 4.272680 8.450210 2.933690 -0.00289712 -0.00204663 0.00113728 15.9994
4041 2 6.008450 2.901770 6.228340 -0.000391761 -0.0026933 0.00296937 15.9994
2237 2 7.488860 6.144420 6.166930 0.00190149 0.00147423 0.000116782 15.9994
2238 2 7.175900 7.439840 5.448730 -0.00127496 0.00119051 0.00111258 15.9994
2236 1 6.769350 6.634740 5.769280 0.00349081 -0.0066261 -0.0126287 1.008
3289 1 -0.119104 1.130040 0.045374 0.00025107 -0.0197619 -0.0120846 1.008
2735 2 3.010660 1.039920 2.033600 0.000570996 -0.00217177 0.00123535 15.9994
675 2 1.264530 6.957010 1.460280 0.0030825 0.000541536 -0.00290081 15.9994
3669 2 8.709670 7.986600 1.927010 -0.0035072 -0.00115781 0.00255611 15.9994
4117 1 4.004230 8.663330 3.827410 -0.0149164 -0.00847224 -0.000955576 1.008
3313 1 0.855892 8.676190 6.313690 0.0056018 0.000313716 0.00569803 1.008
2734 1 2.372160 0.768600 1.374110 -0.000281792 -0.0046575 0.00313562 1.008
674 2 0.084838 7.903480 1.526840 -0.000939696 -0.00530742 0.00767217 15.9994
267 2 4.757390 8.048950 0.474369 -0.000625476 0.000431476 -0.00270675 15.9994
1881 2 5.580800 1.775150 0.754372 0.00313595 -0.00305215 0.0035653 15.9994
2736 2 2.845010 0.142796 0.825454 0.00124181 -0.00102132 0.000362362 15.9994
4368 2 1.669700 0.323921 2.947490 0.003135 0.00165296 -0.0032467 15.9994
2687 2 0.141759 8.653390 3.581950 0.00594149 0.00171707 -0.00269643 15.9994
673 1 0.837169 7.668630 0.983629 -0.0037414 -0.000475589 0.00176186 1.008
3130 1 8.545850 0.020930 2.714110 0.00293385 -0.0101086 -0.00890688 1.008
4391 2 8.968360 3.707150 4.431840 -0.00251943 0.0018812 -0.00385908 15.9994
4390 1 9.096070 4.203150 3.623190 0.00538578 -0.000714758 -0.00415213 1.008
479 2 9.455800 6.952670 -0.021453 0.00147027 0.0017583 -0.000236977 15.9994
2377 1 9.257280 3.258220 6.418120 0.00310834 -0.0094992 0.0133211 1.008
480 2 10.844300 6.557430 0.434401 0.0024981 0.000109893 -0.00499169 15.9994
478 1 10.196600 6.391510 -0.250612 -0.0141188 -0.0258365 0.0170474 1.008
3131 2 9.380220 0.209129 3.143810 -0.00342883 0.00553779 -0.00358249 15.9994
806 2 10.813000 5.666060 5.592560 0.00582371 -0.00157343 0.00187684 15.9994
805 1 11.315500 5.284980 4.872510 0.00124211 0.00437738 -0.00440049 1.008
4392 2 9.211510 3.535010 2.947540 0.00085268 -0.00291879 -0.00269042 15.9994
2378 2 9.824210 2.665810 5.924280 0.00381589 0.000410849 0.00232589 15.9994
1776 2 11.315900 2.658140 1.807540 0.00386218 -0.000886612 -0.00429528 15.9994
4211 2 11.576500 2.030870 3.998730 0.00668368 -0.00295819 4.64694e-05 15.9994
1774 1 12.146200 2.738730 2.276860 0.00306149 -0.00105178 -0.00292592 1.008
1775 2 12.650600 3.371260 1.765280 0.00322113 0.000389101 -0.000918086 15.9994
1742 2 16.312900 5.410270 4.804910 -0.00118054 -0.00134331 0.000560713 15.9994
4228 1 11.889300 8.575770 1.235110 -0.00714567 -0.0138685 -0.000637645 1.008
4230 2 12.460600 8.072820 1.815540 0.00589224 0.00278521 0.000808673 15.9994
4229 2 12.287000 8.484830 0.369168 -0.00170192 -0.00128328 0.000622286 15.9994
549 2 12.807100 4.697060 5.220730 0.00480352 0.00201787 0.0010222 15.9994
991 1 16.820600 7.489890 1.725390 0.00227186 0.0135642 -0.0181395 1.008
547 1 13.617100 4.237670 5.442320 0.00488401 0.00549425 0.00773881 1.008
1743 2 16.595100 3.931250 4.647570 0.00811259 8.9532e-05 0.00432512 15.9994
2087 2 16.068600 3.368060 1.129600 0.00208278 -0.00128973 0.00545886 15.9994
1741 1 16.174500 4.672200 4.211330 0.00405957 -0.00354511 0.00213821 1.008
4210 1 10.978900 1.588890 4.601830 -0.00097443 -0.0059109 -0.0097775 1.008
3068 2 14.096800 -0.259714 4.449720 0.000592699 -0.00706628 -0.00142688 15.9994
1107 2 12.321700 0.282935 0.078442 0.00174894 -0.00162501 -0.00623764 15.9994
1256 2 14.414800 4.771780 0.899902 -0.000615992 0.000216913 -0.000538006 15.9994
1255 1 13.477200 4.954980 0.840327 0.00278431 0.0189712 0.00420149 1.008
4212 2 11.491500 0.863982 4.959480 -0.00310826 -0.00303406 -0.00100378 15.9994
3668 2 10.092600 8.582390 2.083640 -0.00725096 0.00639811 0.00630222 15.9994
807 2 10.671400 5.143940 4.178620 -0.0049858 0.000583451 0.00222448 15.9994
1257 2 13.335700 5.186460 -0.077629 -0.000719927 0.00244493 0.000612419 15.9994
401 2 14.803800 1.308710 1.724690 0.00312005 -0.00433339 0.000809483 15.9994
400 1 15.088700 1.701810 0.899728 -0.0196421 0.0371853 0.0127195 1.008
3667 1 9.409520 8.117390 2.566810 -0.0044144 -0.000699404 0.00340016 1.008
402 2 14.364200 1.541940 0.294919 -0.00288204 -0.00230033 0.00304888 15.9994
1379 2 17.036000 5.101640 -0.195690 0.00272788 -0.0015715 0.00177987 15.9994
993 2 16.803300 6.789540 1.073130 -3.98285e-05 -0.00215056 -0.00112111 15.9994
1683 2 15.695000 8.593390 2.401710 0.00605805 0.00213572 -0.000312825 15.9994
2088 2 15.746900 4.258440 2.310970 -0.00219363 0.00252715 0.00134297 15.9994
548 2 14.241300 4.514790 4.771680 0.00360134 -0.0075157 0.00124727 15.9994
2270 2 13.777700 2.353860 5.864960 0.00393872 -0.00250505 -0.00131354 15.9994
2086 1 16.111900 4.277090 1.426300 0.0195288 -0.00368418 0.0101861 1.008
3197 2 8.969200 1.590670 1.688870 0.00878316 -0.000628813 -0.00245925 15.9994
3196 1 9.416310 2.377650 1.377430 0.00616758 0.000928623 -0.00215889 1.008
992 2 17.668000 7.392410 2.159700 -0.00558594 0.0102506 -0.00366951 15.9994
32 2 15.091200 7.120330 4.933590 0.00372781 0.0111135 -0.00325767 15.9994
31 1 15.645400 6.920070 5.687950 0.00351947 0.00130697 -0.00576713 1.008
33 2 15.036200 6.858900 6.423730 0.00369144 -0.00547084 -0.00622819 15.9994
2271 2 14.295700 1.349710 6.872570 0.000238187 -0.00583863 -0.00282066 15.9994
3687 2 11.866100 0.562957 6.832450 0.00316143 0.00402001 0.000688588 15.9994
2269 1 13.639000 1.462590 6.185340 -0.0111926 0.00383681 0.00972266 1.008
2607 2 16.984300 2.144150 5.727360 -0.00437175 -0.00381453 -0.00241777 15.9994
2605 1 17.343100 2.324540 4.858480 -0.0076776 0.0220409 0.00165011 1.008
1105 1 12.937800 0.921406 -0.280713 0.00869717 -0.0137359 -0.0157126 1.008
3198 2 9.043150 2.538590 0.510781 0.00366536 0.00159019 -0.000920296 15.9994
2850 2 17.428200 8.191220 -0.270707 0.00366767 -0.00225982 -0.00354076 15.9994
336 2 17.295500 0.719507 4.052710 -0.00537933 0.000923823 0.0033666 15.9994
334 1 17.212400 -0.231252 3.979370 -0.000286612 0.00183061 -0.0136437 1.008
3036 2 17.378800 -0.028158 6.036950 0.00367143 0.0024449 0.00444306 15.9994
3292 1 3.269890 17.533900 0.830434 -0.0190567 -0.00197169 -0.00869096 1.008
1982 2 7.308400 11.513000 1.368030 -0.00288197 0.000597689 -0.00589891 15.9994
91 1 6.369890 10.665400 3.876530 0.00946269 -0.00243604 -0.00539682 1.008
93 2 6.914410 9.915250 4.115160 0.00664726 -0.00448865 -0.00557344 15.9994
92 2 5.544070 10.279400 3.584620 0.00336178 0.00130365 0.00705494 15.9994
265 1 4.865600 8.747330 1.119960 -0.0115701 -0.0173105 0.0182155 1.008
669 2 2.342180 9.636300 3.671920 0.00169225 0.00112985 -0.00242058 15.9994
2460 2 1.231160 11.959700 3.890800 0.00208677 0.00534662 0.0018065 15.9994
2458 1 1.145490 12.897000 3.716610 0.00587404 0.00422646 -0.00578032 1.008
2459 2 2.009110 13.258100 3.916480 0.00589045 0.00311559 -0.00403606 15.9994
1833 2 3.265860 15.221100 3.430530 -0.000742185 0.00253646 -0.00215485 15.9994
1831 1 3.499460 14.482400 3.992610 -0.00919707 0.000548068 -0.00132824 1.008
495 2 5.183760 13.105900 1.346330 0.000980587 0.000951672 0.00323734 15.9994
667 1 1.522900 9.979550 4.028540 -0.00351649 -0.00488776 -0.00867471 1.008
494 2 3.710780 12.907100 1.633880 0.000206352 -0.0039857 -0.00445738 15.9994
668 2 1.473890 9.614070 4.911860 0.000616932 0.00804748 -0.00312144 15.9994
493 1 4.567890 12.935700 2.059050 -0.00221581 -0.000396569 0.000102145 1.008
1832 2 3.860380 13.829300 3.393030 -0.00407672 0.00108349 0.00123816 15.9994
714 2 4.161310 15.728600 5.151860 -0.00211087 -0.00173152 0.000456876 15.9994
2879 2 1.332150 16.490000 6.584740 -0.00745549 0.00191065 0.00227861 15.9994
712 1 4.351380 16.576000 5.554400 -0.00149812 0.00114243 -0.00596858 1.008
713 2 4.330410 16.404500 6.495890 -0.00184269 0.0083333 -0.00470326 15.9994
24 2 0.836348 12.452000 1.427100 0.00227158 0.00694921 -0.000937686 15.9994
1460 2 5.974170 11.618000 5.372920 -0.00437358 -0.000640468 -0.000472974 15.9994
1969 1 7.232690 14.332900 5.281620 -0.0165345 0.000805113 0.00521031 1.008
1971 2 7.678970 14.692600 6.048260 -0.00157817 -0.00251474 -0.00197992 15.9994
1970 2 7.407320 14.964600 4.583990 0.000638316 -0.0148566 -0.00462303 15.9994
3717 2 1.118890 16.720300 3.346000 0.00608753 -0.00161466 0.00213281 15.9994
1461 2 5.999440 13.115600 5.593530 0.00186902 -0.00097307 0.000664813 15.9994
1459 1 5.574650 12.312900 5.896130 -0.00495819 0.00116058 -0.00337888 1.008
3715 1 2.038740 16.756100 3.083690 0.00780226 -0.00192977 0.00824403 1.008
3314 2 0.087893 8.796530 6.872200 -0.00108704 -0.00025958 -0.00346541 15.9994
1981 1 7.301100 12.379500 1.774830 -0.0123634 0.00101849 -0.0070315 1.008
3677 2 6.607890 14.609500 -0.143576 0.00234004 0.00770639 -0.00205069 15.9994
22 1 0.489144 11.871700 0.749578 0.00570628 0.00181976 0.00175977 1.008
1983 2 6.845960 12.250100 2.606900 -0.00643089 -0.00394595 -0.00459187 15.9994
2878 1 0.579892 15.931200 6.389540 0.00117701 -0.00703088 -0.00517033 1.008
23 2 0.785348 12.259900 -0.073707 0.005714 -0.00175259 0.000117784 15.9994
2394 2 1.902540 10.492600 0.393355 -0.00323871 -0.00389219 -0.00140732 15.9994
3875 2 7.438080 10.548300 6.570600 -0.00311198 -0.00605409 -0.00739775 15.9994
139 1 8.667540 11.640000 5.947190 0.000857277 -0.00431843 -0.018336 1.008
141 2 8.626540 12.585500 5.803710 0.00464513 -0.00105245 0.00216708 15.9994
883 1 8.636870 16.695900 2.147280 0.00115914 0.0070933 0.0134469 1.008
884 2 8.512480 15.768600 2.349520 -0.00580943 0.00591532 0.00364575 15.9994
2348 2 7.432940 17.688600 1.013040 -0.00297143 -0.000574249 -0.00174358 15.9994
3293 2 2.772480 17.347100 1.626620 -0.00389974 0.00602083 0.00262225 15.9994
266 2 4.091000 9.298660 1.009190 0.00566013 0.00291997 -0.000855328 15.9994
2392 1 2.482040 9.791600 0.094965 -0.00176547 -0.0018814 -0.00315541 1.008
2393 2 2.071490 8.988290 0.414923 0.00629757 -0.00266817 0.00516744 15.9994
3191 2 -0.255135 16.345600 4.737400 -0.000868919 0.00301263 0.00225457 15.9994
3716 2 2.414590 17.453200 3.621270 0.00158141 0.0063688 0.00176101 15.9994
2719 1 15.766400 13.604800 4.180750 0.0101668 0.000710966 -0.00341993 1.008
677 2 12.674300 11.673900 3.115940 0.000435235 0.000849048 0.00239025 15.9994
678 2 13.439500 10.380100 2.935470 0.00480417 0.00346691 0.00263617 15.9994
676 1 12.731700 10.776400 3.443730 0.0162679 0.00684451 0.015866 1.008
2278 1 15.950500 10.270700 5.181840 -0.012342 0.0501498 -0.0142474 1.008
2280 2 15.680300 9.866520 4.357330 0.00469396 0.00572723 0.00207242 15.9994
1681 1 15.226000 9.363840 2.722110 -0.00296657 0.0026632 -0.0148901 1.008
1682 2 15.852000 10.081900 2.628740 0.00075197 0.00189986 0.00451687 15.9994
2279 2 15.181100 10.200800 5.746930 0.00390688 0.0044315 0.00203764 15.9994
2721 2 15.917700 13.851300 5.093200 0.0032323 0.00143816 -0.00251873 15.9994
4407 2 8.947480 8.972770 5.388200 0.00531958 0.00120413 -0.00253422 15.9994
2581 1 10.654900 12.021400 0.303910 0.00724775 -0.00708119 0.00551844 1.008
633 2 10.873100 9.249790 5.297710 0.00110473 -0.000317029 -0.00195874 15.9994
632 2 11.761400 10.442900 5.016080 0.00480367 -0.00305886 -0.00159385 15.9994
3156 2 16.727200 17.387600 5.597800 0.00471883 -0.00230916 -8.20473e-08 15.9994
2583 2 11.484000 12.401800 0.593990 0.00748625 -0.000925869 -0.00342162 15.9994
1273 1 10.885300 15.324300 0.519979 0.00093146 -0.00939945 0.0147147 1.008
631 1 11.022600 10.159600 5.554710 -0.0115639 0.00656222 -0.019 1.008
3095 2 8.951700 13.244100 2.316380 -0.000611087 0.0069339 0.00218205 15.9994
3096 2 9.908260 14.273300 1.752820 -0.00242126 0.00826674 0.00170084 15.9994
3094 1 9.499300 13.987200 2.569600 -0.0143725 0.0180829 -0.00087767 1.008
1485 2 10.219200 16.797900 5.158430 0.00218573 0.00169149 0.00277713 15.9994
140 2 9.595660 11.423700 5.857550 0.00324708 -0.00217918 0.00137274 15.9994
1483 1 10.011100 15.863800 5.139440 -0.0392811 0.0111702 -0.0113131 1.008
2720 2 15.957100 12.667200 4.150710 -0.00213763 -0.00188599 0.00152709 15.9994
1769 2 12.721600 14.374600 4.030720 -0.00314385 -0.00643158 -0.00238347 15.9994
1770 2 11.451400 14.048600 3.274340 -0.00113922 -0.000249335 -0.0082983 15.9994
1484 2 10.248500 15.583000 4.255670 -0.00414261 0.00321749 0.000616462 15.9994
2655 2 14.517100 15.401400 5.196280 0.00162766 0.00936234 -0.0101775 15.9994
2654 2 13.632000 15.736300 6.377920 0.00143764 -7.85284e-06 -0.00773864 15.9994
2653 1 13.624100 15.660200 5.423780 -1.42723e-05 0.00145178 -0.00780682 1.008
1557 2 16.963200 10.937800 6.802160 0.00311905 0.00374317 -0.0057819 15.9994
1768 1 12.405300 14.024300 3.197990 -0.000794702 -0.018473 0.00180613 1.008
4101 2 13.202100 13.422100 1.065150 -0.000340897 0.000961541 -0.00139039 15.9994
4099 1 13.126200 13.071400 0.177736 -0.00962173 0.0124844 -0.00511489 1.008
2147 2 8.979450 13.502600 -0.129405 0.00247649 -0.00357739 -0.00832191 15.9994
885 2 9.579240 16.786300 2.005880 0.000819931 -5.83734e-05 0.00678758 15.9994
1473 2 11.901900 16.065200 2.883960 -7.6678e-05 0.00113891 0.00294903 15.9994
1274 2 11.648000 15.037600 0.017741 -0.00215367 0.0040406 0.00252817 15.9994
4100 2 13.855500 13.466900 -0.299752 -0.000210642 -0.000351532 -0.00130619 15.9994
876 2 15.172600 15.761500 -0.006999 0.00251273 -0.001782 -0.0090456 15.9994
875 2 16.442800 15.167300 0.563657 0.00401557 0.00732888 -0.00306062 15.9994
1471 1 11.303400 16.782400 2.674920 0.00603829 0.0167847 0.0391374 1.008
1472 2 11.868300 17.473000 2.328280 0.00234772 -0.000752983 -0.00183162 15.9994
3007 1 17.625600 10.669700 2.385910 0.000901733 -0.00581042 -0.00143716 1.008
1275 2 11.250300 15.850400 1.231440 0.00207287 0.00716744 0.00174628 15.9994
874 1 15.908600 15.191600 -0.230240 0.0110576 0.00879385 -0.00770894 1.008
3154 1 17.415300 16.742900 5.762250 -0.00174894 -0.0120222 -0.0113255 1.008
2462 2 10.255900 14.884900 6.835660 0.000857178 0.00570136 0.00778351 15.9994
2463 2 11.086400 13.619200 6.827150 -0.00522786 0.0018223 0.00125161 15.9994
67 1 15.895500 13.774800 6.777750 -0.00159769 -0.00371626 0.0056044 1.008
258 2 14.062600 12.883200 6.838230 0.00675234 0.00731616 0.00381881 15.9994
2453 2 13.882100 17.563300 -0.293121 -6.62683e-05 -0.00302583 0.00195095 15.9994
1889 2 16.357400 15.114300 3.272160 -0.000288477 0.00660939 0.00145544 15.9994
1888 1 16.514300 15.905400 2.756630 0.00127804 0.018464 0.0201363 1.008
1890 2 15.656400 16.325400 2.694530 -0.00443039 0.00400061 0.00116472 15.9994
890 2 15.498000 10.484400 -0.094917 -0.00411893 0.00153022 0.00282499 15.9994
2452 1 13.401300 16.760000 -0.093831 0.0210014 -0.0144786 0.00612743 1.008
3984 2 3.226750 0.412155 11.716400 0.000937166 0.000847985 0.00539731 15.9994
3512 2 1.134340 3.107410 7.118220 0.00255875 0.00178865 0.00323924 15.9994
1695 2 7.803010 2.654230 7.460780 0.00351602 0.00465372 -0.00489498 15.9994
1590 2 1.135510 6.253730 8.583870 0.00208504 0.00490245 0.00403994 15.9994
1589 2 2.359300 6.955110 9.133680 0.00677003 -0.00623586 0.00766303 15.9994
2936 2 7.815540 1.381150 11.152700 -0.000853814 0.00256614 0.00122185 15.9994
3333 2 5.860150 -0.001780 12.882500 -0.00666684 -0.00177062 0.00111587 15.9994
3331 1 5.993290 -0.191784 13.811100 -0.00198801 -0.00505834 -0.000266652 1.008
2935 1 7.029760 1.753230 10.752300 -0.00945014 -0.00627763 0.00990925 1.008
2937 2 6.911850 2.595100 11.192300 -0.00318238 0.000868073 -0.00211184 15.9994
3828 2 5.128570 1.127160 8.127180 -0.00141005 0.00110041 0.0049883 15.9994
1694 2 6.866100 2.700960 8.649020 0.0023587 0.0100279 -0.00609314 15.9994
1693 1 6.879230 2.578450 7.699780 0.000541324 0.0293172 -0.00859414 1.008
1439 2 3.263860 5.249970 7.594830 -0.00451891 -0.0011289 -0.00528711 15.9994
1438 1 4.088490 4.921950 7.953460 -0.0135437 -0.010868 0.00636166 1.008
1440 2 4.336570 4.205930 7.368640 -0.00130432 0.00199417 -0.00406541 15.9994
833 2 2.427640 0.670498 8.273590 -0.00177584 0.00475792 0.00579968 15.9994
834 2 1.082220 0.318507 7.675410 -0.00126746 -0.00175885 0.0086393 15.9994
3983 2 1.985240 1.213010 11.386000 0.00125018 -0.0028643 -0.00450905 15.9994
3505 1 0.519193 4.015170 9.051270 -0.00371936 0.00301064 0.00229513 1.008
3507 2 1.164870 4.166160 9.741580 -0.00178796 0.00590557 -0.00019724 15.9994
832 1 1.487260 0.715549 8.446460 -0.00142309 -0.00410288 0.00988606 1.008
3506 2 0.013690 3.261670 9.356130 0.0012834 0.000352431 0.00389124 15.9994
620 2 3.272240 4.394400 10.031900 0.00138282 0.00136528 -0.00408478 15.9994
619 1 2.586910 4.165360 10.659700 0.0213044 -0.0150773 0.0116019 1.008
3589 1 3.336190 3.267330 13.247800 0.00283113 -0.0037552 -0.00422786 1.008
615 2 5.649410 0.726966 10.730300 -0.00208076 0.00284126 0.000303637 15.9994
613 1 4.937610 0.138681 10.982300 -0.000412458 0.00489187 0.00960317 1.008
1588 1 1.406290 7.026410 9.079730 0.00938357 0.013015 -0.0126459 1.008
627 2 6.145680 6.699900 11.421000 -0.000791266 -0.00010055 0.00447626 15.9994
626 2 6.650140 5.612210 10.496700 0.00160658 0.00249586 0.00282396 15.9994
621 2 2.488120 4.947200 11.203000 0.00349821 -0.0116988 0.00342482 15.9994
625 1 5.888920 5.871550 11.015900 -0.0044569 0.00760962 -0.00876511 1.008
733 1 7.925000 5.249510 9.719780 -0.00286468 0.00444347 0.0181543 1.008
3591 2 2.689650 3.387960 12.552300 -0.00526718 0.00420062 0.0046906 15.9994
1316 2 3.490020 6.829350 11.937300 -0.000199642 -0.000663394 -0.0050468 15.9994
1315 1 2.559500 6.629900 11.834500 -0.00235803 -0.00636156 0.0263091 1.008
3590 2 3.035980 2.492420 13.722800 0.00133281 -0.00166456 -0.00182475 15.9994
3258 2 4.729580 7.227820 9.738370 -0.00274961 1.8061e-05 -0.00910575 15.9994
1317 2 2.111050 7.431540 12.103700 0.00316693 0.00562112 -0.00042154 15.9994
734 2 7.953390 6.155010 9.410770 -0.00370215 -0.00322181 -0.00454837 15.9994
157 1 0.004745 3.842270 12.684300 0.0169149 -0.00992834 -0.00157278 1.008
4102 1 5.677880 3.617030 12.308800 0.00543984 0.00951149 0.00894488 1.008
4104 2 5.661880 4.506670 11.955900 -0.00326104 0.00512539 -0.00152266 15.9994
4103 2 4.812410 3.498470 12.700100 0.00194356 0.000756897 -0.00161871 15.9994
122 2 7.465910 8.360750 13.172800 -0.00304702 0.00310347 -0.00238013 15.9994
121 1 7.407200 8.079520 12.259700 -0.0122142 -0.0347464 0.00985885 1.008
123 2 8.291520 7.784850 12.042000 -0.00279398 0.00189096 -0.00149948 15.9994
2842 1 4.374110 8.596270 14.071300 0.0106747 -0.00871455 -0.00263701 1.008
159 2 0.311560 4.528920 12.092100 -0.00145621 0.00057229 0.00111376 15.9994
3273 2 7.007540 8.395890 7.936500 0.00270792 -0.00151656 -5.68551e-05 15.9994
3271 1 7.157360 7.584460 8.421650 0.00391864 -0.000912654 0.000504908 1.008
3272 2 6.711810 6.911440 7.907100 0.00434958 -0.00181247 0.00137726 15.9994
3257 2 4.182200 8.539540 10.259600 -0.0016274 -0.000893514 -0.00580367 15.9994
3256 1 4.052770 7.884390 9.573820 -0.018685 -0.012092 0.00811068 1.008
3481 1 0.944370 8.258750 13.649900 -0.00273456 0.000530688 -0.000456253 1.008
2424 2 6.818520 3.231340 13.760200 0.00828404 -0.000682712 -0.00843999 15.9994
3826 1 4.352220 0.582530 8.257100 -0.01309 0.0222442 0.0240389 1.008
3483 2 0.093315 8.384790 14.069500 -0.00336117 -0.00379001 -0.000507324 15.9994
2285 2 0.269459 8.539860 10.075900 -0.00181073 0.00139557 -0.0058234 15.9994
3827 2 4.579870 0.011210 8.990590 -0.00333285 0.00287406 0.00595593 15.9994
3982 1 2.286290 0.456366 11.889100 0.0029777 0.0101176 0.0138851 1.008
2517 2 2.117940 0.910205 13.488500 0.00499292 0.00859414 0.00500457 15.9994
1453 1 17.712400 1.360780 12.373300 -0.000855574 -0.00112918 -0.00498722 1.008
2379 2 9.849410 3.713860 7.016460 0.00699323 0.00195554 0.000689498 15.9994
130 1 16.045300 2.725030 7.782600 0.00570313 -0.00600859 0.00484682 1.008
752 2 11.413000 4.823250 7.905830 -0.00323452 0.00095591 0.00437699 15.9994
735 2 8.829110 5.050510 9.963110 0.00130246 0.00451237 0.00282009 15.9994
751 1 11.302300 4.013600 8.404270 0.00296753 -0.00333939 -0.00128308 1.008
705 2 10.035000 0.514912 12.098100 0.00182589 -0.000125774 0.000509016 15.9994
888 2 10.810800 7.418930 7.684520 -0.000876106 0.00554266 0.00269421 15.9994
886 1 10.078500 6.805480 7.624470 0.00443676 -0.000720288 0.00240292 1.008
3686 2 10.713400 1.467320 7.213860 0.000994794 0.00304065 -0.00376996 15.9994
3685 1 11.021000 0.563448 7.282030 0.0099182 0.00739677 0.0133215 1.008
753 2 12.147700 3.877710 8.832100 0.0037023 0.000632011 -0.0015531 15.9994
887 2 9.391320 7.198640 8.162530 0.000834196 -0.00656683 0.00200539 15.9994
4443 2 14.116700 0.787955 9.673000 -0.00128886 0.0016523 -0.00295857 15.9994
1698 2 12.661500 0.387799 12.724100 -0.00354419 -0.00408521 0.000983025 15.9994
3912 2 13.877000 4.853010 8.865990 -0.000159449 0.000767219 0.00133341 15.9994
3910 1 13.805500 3.999600 9.293560 0.0102596 -0.000317954 0.000883946 1.008
2355 2 11.362600 8.129780 9.234220 -0.00131421 -0.00382758 -0.000304297 15.9994
4081 1 10.401300 3.949910 10.996800 -0.0179486 0.00559458 -0.012544 1.008
4082 2 10.782400 3.939800 10.118800 0.00105257 -0.00435811 -0.00414516 15.9994
3911 2 14.115600 4.151710 10.186300 0.00185613 0.00461959 0.00294903 15.9994
4083 2 10.144600 3.041870 11.157400 -0.00185348 0.0034319 0.000719931 15.9994
2613 2 14.150100 2.243930 13.005600 -0.000863989 0.00367199 0.00308604 15.9994
2611 1 14.605100 3.071570 13.161300 0.0126923 -0.00312738 -0.000529294 1.008
2612 2 14.807200 3.402640 12.286200 -0.00233847 0.0010218 -0.00240655 15.9994
333 2 14.270000 6.188890 13.640100 0.00222572 -0.00340157 -0.00249461 15.9994
332 2 14.987000 4.856900 13.580300 0.00688464 -0.000855306 -0.00185852 15.9994
331 1 15.097700 5.785890 13.378000 0.00781319 0.00119147 0.00823623 1.008
3019 1 10.500900 7.425570 10.650500 0.0208513 0.00552238 -0.0211033 1.008
3020 2 10.816500 6.547860 10.865500 0.00390851 0.00389251 -0.00298188 15.9994
3021 2 10.931500 7.997730 11.285700 -0.0096414 0.00369874 0.00118573 15.9994
1432 1 14.276800 6.857340 8.910760 0.00513952 0.00324705 -0.0167168 1.008
1433 2 14.684000 7.410600 9.577380 0.00366039 -0.00683137 -0.00751496 15.9994
1434 2 13.477900 7.324470 8.666440 -0.000202688 0.00116142 -0.00305695 15.9994
4442 2 15.049400 1.939060 9.984220 -0.000791182 0.00101315 -0.00237082 15.9994
704 2 9.722540 0.305636 10.631600 0.0102357 -0.00984373 0.000163973 15.9994
703 1 9.614120 0.932661 11.346700 0.0121313 -0.00214904 -0.00634296 1.008
4441 1 15.035000 1.053090 9.622180 -0.0076657 0.0163518 -0.0393151 1.008
1696 1 13.542700 0.400550 12.350600 0.00112092 -0.00274295 0.0121136 1.008
2353 1 11.830100 8.532460 8.502380 0.00592825 -0.00104485 0.00588924 1.008
132 2 15.533300 3.524080 7.907700 0.00166054 -0.0085216 0.00406381 15.9994
131 2 15.633100 2.082950 8.360580 0.00595232 -0.00888356 0.0017684 15.9994
1767 2 10.185400 4.375850 12.948400 -7.45107e-05 0.00154916 -0.00307496 15.9994
1765 1 10.038200 4.667430 13.848100 -0.010617 0.015338 -0.00927185 1.008
2992 1 17.591600 6.378770 13.905300 -0.0032075 0.00119094 0.00836793 1.008
2993 2 16.659400 6.349410 13.690300 -0.00104316 -0.000330857 -0.00076174 15.9994
3850 1 15.935200 3.631600 10.784400 -0.00772213 -0.00869043 -0.000162451 1.008
1455 2 17.421000 0.992402 13.207300 -0.00296777 0.00551553 -0.00282949 15.9994
3034 1 17.460500 0.177491 6.968220 -0.00508909 0.0227099 0.000694238 1.008
3852 2 16.423800 3.560920 9.964280 -0.00311215 0.000993328 0.0017935 15.9994
879 2 17.366000 5.950300 7.678790 -0.00131575 -0.00566435 -9.8992e-05 15.9994
3851 2 16.423700 3.087740 11.402300 -0.00693642 -0.00980524 -0.00182222 15.9994
3876 2 6.003950 10.573200 7.054900 -0.00194203 0.00362789 -0.00461384 15.9994
796 1 5.508820 15.270700 7.953740 -0.00362065 -0.00237151 -0.000645735 1.008
798 2 5.870840 14.653800 8.589770 -0.00603283 -0.00275873 0.000297783 15.9994
3874 1 6.796680 10.036800 7.063720 0.00312068 0.0115947 0.0188889 1.008
2880 2 0.518306 15.340800 7.140400 -0.00686653 0.000477792 1.81388e-05 15.9994
1820 2 5.888270 17.649100 11.022700 -0.00724684 0.00660745 0.00516319 15.9994
4197 2 1.660760 13.409900 7.811540 0.00593774 -0.00548107 0.000770122 15.9994
4195 1 0.768780 13.492600 8.148810 0.00731294 -0.00271472 0.00362279 1.008
4196 2 0.627719 12.691600 8.653410 0.00400855 -0.00539819 -0.00163203 15.9994
797 2 5.030320 14.721800 7.332480 0.00533744 -0.00265698 -0.00722643 15.9994
198 2 5.774980 16.302800 12.567500 -0.00491904 0.00199849 -0.0027616 15.9994
1601 2 -0.213491 17.238400 12.606700 0.00692969 0.00732791 0.000740665 15.9994
1000 1 3.419990 12.639900 7.848490 -0.0157388 -0.00130292 -0.00299604 1.008
1001 2 3.209520 11.745600 8.117130 -0.00291981 -0.00336036 9.80684e-05 15.9994
1002 2 3.715650 12.554900 6.942080 -0.00102687 -0.00203531 0.00190162 15.9994
1129 1 2.238520 13.921100 11.019100 -0.0053428 -0.0103934 -0.00656514 1.008
1130 2 1.959320 13.772600 11.922600 0.00146003 0.0022757 -0.00241145 15.9994
1131 2 1.542520 14.456200 10.637700 0.00298483 0.00352137 -0.00217461 15.9994
2002 1 2.480400 9.967750 8.294310 -0.0153126 -0.0142789 0.0138625 1.008
422 2 3.557010 10.314000 11.325000 0.00414811 0.00266824 -0.00303542 15.9994
718 1 0.004376 16.132900 9.405860 -0.00374934 -0.00157301 0.00410305 1.008
2004 2 3.012980 9.389900 8.840840 0.00136227 -0.0098984 0.00229094 15.9994
2003 2 2.207880 9.418730 7.559090 0.0031336 -0.0067013 0.00131943 15.9994
1628 2 6.284580 12.482000 9.256220 0.00062188 -0.00294135 -0.00161488 15.9994
1627 1 5.729550 13.215100 9.522420 0.00396092 -0.000860346 -0.000511725 1.008
1629 2 4.901060 13.066700 9.066560 0.00205381 0.00154913 0.00224477 15.9994
3463 1 4.918830 15.195000 11.546200 -0.00122608 -0.00136642 0.00860113 1.008
421 1 4.136910 9.605620 11.604500 0.000809531 -0.00170929 -0.00734216 1.008
2844 2 3.960000 8.959430 13.288500 0.00442665 -0.00232696 0.00364101 15.9994
423 2 5.013260 9.990020 11.582400 0.00135408 -0.00229049 0.00618636 15.9994
3464 2 5.558790 14.681100 11.053700 -0.00169126 0.000489754 0.00612588 15.9994
4110 2 7.928190 13.702800 12.977700 0.00401785 -6.20679e-05 -0.000382505 15.9994
3465 2 4.070190 14.844500 11.275700 -0.00164152 0.00325995 0.00402003 15.9994
720 2 0.180993 16.528500 10.259400 -0.00148756 0.000748498 0.00252393 15.9994
4426 1 2.001320 11.137200 10.505900 0.00369016 0.00156031 3.67378e-05 1.008
3608 2 5.012500 13.303200 13.105000 0.00623434 0.000559816 0.00494807 15.9994
1602 2 1.217060 16.743900 12.636500 0.00123973 -0.00888843 0.00184233 15.9994
4428 2 1.951750 12.086400 10.392300 -0.00225486 0.000777033 -0.00359857 15.9994
466 1 7.614470 11.289600 9.288750 -0.00144553 -0.00931141 0.00653865 1.008
4427 2 2.042340 10.790700 9.614600 -0.00223144 -0.00203458 0.00120249 15.9994
40 1 7.631200 12.214600 13.885900 -0.00429485 -0.00531444 -0.0033479 1.008
41 2 7.409170 11.488300 13.303300 -0.000696105 -0.00756309 -0.00185304 15.9994
196 1 6.522050 16.721900 12.994600 -4.85873e-05 0.00458063 -0.0139299 1.008
4108 1 8.080150 14.235200 12.196900 -0.0136147 -0.00964164 -0.0103101 1.008
4109 2 7.715430 15.092600 12.416400 0.00370342 -0.00303765 -0.00747603 15.9994
467 2 7.431510 10.885000 8.440750 0.00174333 -0.0140221 0.00814677 15.9994
468 2 8.380240 11.841800 9.130970 -0.00464242 -0.00541246 0.00486059 15.9994
197 2 6.221400 17.610100 13.186800 -0.00577387 -0.00157656 0.00525824 15.9994
1025 2 0.528894 13.587200 13.510400 0.00403301 2.73823e-05 -0.00823934 15.9994
1793 2 7.196680 11.210500 11.078900 -0.00531948 0.00521771 0.00347423 15.9994
1792 1 6.712830 10.754100 11.767200 -0.00704192 -0.000218445 -0.00138763 1.008
1794 2 7.014270 9.847290 11.711600 -0.00280576 0.00139881 -0.00416971 15.9994