LAMMPS data file via write_data, version 29 Sep 2021, timestep = 40000

4500 atoms
2 atom types
3000 bonds
1 bond types
1500 angles
1 angle types

-0.3023843525268042 35.86163435252665 xlo xhi
-0.3023843525268042 35.86163435252665 ylo yhi
-0.30187645503098537 35.80188645503091 zlo zhi

Masses

1 1.008
2 15.9994

Pair Coeffs # lj/cut/tip4p/long

1 0.155 3.1536
2 0 0

Bond Coeffs # harmonic

1 450 0.9572

Angle Coeffs # harmonic

1 55 104.52

Atoms # full

650 217 2 0.52 6.780403791211094 7.627119247249293 1.3123357823187167 1 0 1
651 217 2 0.52 7.333149160759685 6.527716026948697 0.430473940864214 1 0 1
649 217 1 -1.04 7.530982479513978 7.403621261685951 0.7619612524623203 1 0 1
3150 1050 2 0.52 1.457789544522685 5.178846639138825 6.016615660701306 0 1 0
3148 1050 1 -1.04 2.0000893832376145 5.95995467223947 6.126219335618723 0 1 0
4040 1347 2 0.52 5.14341609214659 3.7280688233105583 5.300522112556258 1 0 1
307 103 1 -1.04 4.448186882703568 5.344369092186336 4.894475165947968 1 0 0
4039 1347 1 -1.04 5.236558451371587 2.847834120663145 5.664861527351339 1 0 1
309 103 2 0.52 5.297522265926937 5.752657493728152 5.062290028136161 1 0 0
308 103 2 0.52 4.432247990129344 5.204015841760443 3.947755166793839 1 0 0
4405 1469 1 -1.04 8.26614376479015 8.650935835904548 4.797905453098235 0 0 0
4406 1469 2 0.52 8.7238922214616 8.476366020862745 3.9755773129429937 0 0 0
1141 381 1 -1.04 6.719225999897841 4.298382226808376 2.4528282240328876 0 0 1
4302 1434 2 0.52 4.652203857517683 1.8087414978831782 4.273145890683827 0 1 0
4119 1373 2 0.52 4.457555263089757 8.021247732700665 4.373725941211606 0 0 0
3435 1145 2 0.52 5.1916292059986135 4.65015869465216 2.2930265339637965 0 0 1
1142 381 2 0.52 7.108191330970467 3.446062313713986 2.256643166073996 0 0 1
1879 627 1 -1.04 6.0457150657571175 1.3542188370747947 1.4774943676217642 1 1 1
4300 1434 1 -1.04 4.449768265132062 1.1312971324194252 3.6279166270597285 0 1 0
1143 381 2 0.52 7.313501263136576 4.692063508916518 3.0916425942690475 0 0 1
1880 627 2 0.52 6.095292230917411 0.4318733332385492 1.2263913683411272 1 1 1
4301 1434 2 0.52 5.134298813621701 1.2193582451248763 2.964670813945503 0 1 0
3513 1171 2 0.52 1.7062394404843955 2.2934290243510955 5.9770489362813235 0 0 1
3511 1171 1 -1.04 1.157736124732017 3.055601261511315 6.162708392035219 0 0 1
39 13 2 0.52 2.493289900718619 5.41534042771821 2.53046435324737 1 0 0
3434 1145 2 0.52 4.4520974156288355 5.423362950121435 1.221978868294836 0 0 1
3433 1145 1 -1.04 4.346653621525869 5.056174900930642 2.0996384736183527 0 0 1
3149 1050 2 0.52 2.730618819737423 5.831763830435228 5.521136126064208 0 1 0
37 13 1 -1.04 1.6644169093611367 5.836614751709443 2.7579052206037633 1 0 0
3315 1105 2 0.52 1.07247266891737 7.7478370248446 6.4002358511974915 1 1 0
3290 1097 2 0.52 0.7184562774081199 0.9244354570066678 0.46064781072585065 1 1 0
38 13 2 0.52 1.1518644751250489 5.146303388993411 3.1786094690536646 1 0 0
4118 1373 2 0.52 4.272682814090745 8.450211945162538 2.9336887632865607 0 0 0
4041 1347 2 0.52 6.008450432784851 2.901770517475103 6.228337768313499 1 0 1
2237 746 2 0.52 7.4888604953825215 6.144415021148031 6.1669317270939334 1 1 0
2238 746 2 0.52 7.175901943560035 7.439844928232352 5.4487301589733015 1 1 0
2236 746 1 -1.04 6.769354966553458 6.634735412311651 5.769276665522269 1 1 0
3289 1097 1 -1.04 -0.11910369327909207 1.1300381471025642 0.04537360092253557 1 1 0
2735 912 2 0.52 3.010661584152247 1.0399240851912595 2.033599542009407 0 1 1
675 225 2 0.52 1.2645281288440218 6.957012449329101 1.460277141367107 0 0 1
3669 1223 2 0.52 8.709670721685296 7.98660164878035 1.927014880277331 0 -1 0
4117 1373 1 -1.04 4.00422781429165 8.663329659837135 3.8274138847723256 0 0 0
3313 1105 1 -1.04 0.8558922670788833 8.676187788256225 6.313693204990372 1 1 0
2734 912 1 -1.04 2.372160955750927 0.7685996593428462 1.3741059154525248 0 1 1
674 225 2 0.52 0.08483847003170168 7.903477920382278 1.5268399896656428 0 0 1
267 89 2 0.52 4.757393809386719 8.048948305488066 0.47436913134296516 1 1 1
1881 627 2 0.52 5.580803996532135 1.7751510348614605 0.7543722323094985 1 1 1
2736 912 2 0.52 2.8450068593564417 0.14279648823117388 0.825453947015284 0 1 1
4368 1456 2 0.52 1.6697040683251092 0.32392078952337106 2.947493920472968 1 0 0
2687 896 2 0.52 0.14175924973963458 8.653388858118255 3.5819528292802887 2 0 0
673 225 1 -1.04 0.8371690223011705 7.6686322063885735 0.9836290999177445 0 0 1
3130 1044 1 -1.04 8.54584843206773 0.020929803356721434 2.714111452708488 0 1 1
4391 1464 2 0.52 8.968360676349583 3.707154735600377 4.4318377002723786 0 1 0
4390 1464 1 -1.04 9.096068212155398 4.20314849750651 3.623188942498888 0 1 0
479 160 2 0.52 9.455801579198711 6.9526700893658715 -0.021452717075712776 1 0 0
2377 793 1 -1.04 9.257281921745605 3.2582150947380137 6.418121571130447 1 1 1
480 160 2 0.52 10.84428284681053 6.557432997639905 0.4344009903714553 1 0 0
478 160 1 -1.04 10.196625537739664 6.391512428570009 -0.2506115750363653 1 0 0
3131 1044 2 0.52 9.380215732388361 0.20912915680256972 3.1438137351299624 0 1 1
806 269 2 0.52 10.812951074281118 5.666058680387534 5.59256405552635 0 1 0
805 269 1 -1.04 11.31547359528254 5.284975284901042 4.872509612049427 0 1 0
4392 1464 2 0.52 9.211513399670554 3.5350147484692136 2.947539964051531 0 1 0
2378 793 2 0.52 9.82420980214756 2.6658109880081233 5.924277473512071 1 1 1
1776 592 2 0.52 11.315866643364032 2.6581434699460442 1.8075435566609086 0 0 1
4211 1404 2 0.52 11.576486613660252 2.030870034344471 3.9987251343383745 0 0 0
1774 592 1 -1.04 12.146215399907769 2.738732830654487 2.276860227414116 0 0 1
1775 592 2 0.52 12.65062059846518 3.3712641525609444 1.7652828994611183 0 0 1
1742 581 2 0.52 16.312865030969732 5.410265702883598 4.804911110556067 0 1 0
4228 1410 1 -1.04 11.889339718762356 8.575769655794181 1.23510641767204 0 1 0
4230 1410 2 0.52 12.460632327916548 8.072824265424217 1.8155394706862522 0 1 0
4229 1410 2 0.52 12.286971326907366 8.484825790847216 0.369167529740264 0 1 0
549 183 2 0.52 12.807076331590107 4.6970627344606335 5.220732662480596 0 1 0
991 331 1 -1.04 16.820618734362785 7.489891110228078 1.725387521394134 0 0 1
547 183 1 -1.04 13.617070795322677 4.23767222954606 5.442320506725082 0 1 0
1743 581 2 0.52 16.595118258934896 3.9312547627101657 4.647574064922178 0 1 0
2087 696 2 0.52 16.068596267416286 3.3680637574530974 1.12960201287516 0 1 0
1741 581 1 -1.04 16.174489275832418 4.6721965254796265 4.211330551780425 0 1 0
4210 1404 1 -1.04 10.978868612609572 1.5888886815039707 4.601831301245554 0 0 0
3068 1023 2 0.52 14.096751075652385 -0.25971391932887056 4.449716618849242 0 0 0
1107 369 2 0.52 12.321686998293293 0.2829351685063269 0.0784420743668725 0 1 0
1256 419 2 0.52 14.414808292061023 4.771778102731974 0.8999023443427138 0 1 1
1255 419 1 -1.04 13.477194357472849 4.954979542357009 0.84032733124663 0 1 1
4212 1404 2 0.52 11.491537141021137 0.8639818429553697 4.959480424551893 0 0 0
3668 1223 2 0.52 10.09256743782937 8.58238614643737 2.0836440493607427 0 -1 0
807 269 2 0.52 10.671381524072675 5.143939112307911 4.178617659491345 0 1 0
1257 419 2 0.52 13.335748681217183 5.186457457460302 -0.07762851490720853 0 1 1
401 134 2 0.52 14.803843241465731 1.3087119149420483 1.7246868296398075 0 1 0
400 134 1 -1.04 15.08870975197675 1.7018095848945787 0.8997279621396354 0 1 0
3667 1223 1 -1.04 9.409518873765776 8.117385583451805 2.5668116968225427 0 -1 0
402 134 2 0.52 14.364223897285575 1.5419390372880093 0.29491931937700744 0 1 0
1379 460 2 0.52 17.036038717970783 5.101635856224049 -0.19569047731764394 0 0 1
993 331 2 0.52 16.803269338486587 6.789536358538977 1.0731344568177932 0 0 1
1683 561 2 0.52 15.69502022463092 8.59339109779035 2.401709115126446 0 1 1
2088 696 2 0.52 15.746902952748846 4.258441223429793 2.310972645300669 0 1 0
548 183 2 0.52 14.241307932749681 4.51479183472002 4.771675622538846 0 1 0
2270 757 2 0.52 13.77769212210037 2.3538569463814856 5.864962336878334 -2 0 1
2086 696 1 -1.04 16.111922959208787 4.277087716334422 1.4263006477861435 0 1 0
3197 1066 2 0.52 8.969202582604604 1.5906706692835304 1.6888656247008746 0 1 1
3196 1066 1 -1.04 9.416310058786426 2.3776501689805847 1.3774334301562257 0 1 1
992 331 2 0.52 17.668027844557983 7.392414281747974 2.1597006663340954 0 0 1
32 11 2 0.52 15.091214316157933 7.1203258556041265 4.93359108950039 0 1 1
31 11 1 -1.04 15.645359850053268 6.92007069979461 5.687946734959189 0 1 1
33 11 2 0.52 15.036172711663848 6.858899795066644 6.423732703047514 0 1 1
2271 757 2 0.52 14.295691294067787 1.3497130393988357 6.872566953624876 -2 0 1
3687 1229 2 0.52 11.866063331270375 0.5629569343972843 6.832448359416324 0 0 0
2269 757 1 -1.04 13.639022319129142 1.462588891479653 6.185343016781828 -2 0 1
2607 869 2 0.52 16.984320413061877 2.1441516501478586 5.727363176649736 1 1 0
2605 869 1 -1.04 17.343126575403407 2.324538190168355 4.858484201161677 1 1 0
1105 369 1 -1.04 12.937799800590009 0.921405621227548 -0.2807129560142253 0 1 0
3198 1066 2 0.52 9.043154184877903 2.5385858799695664 0.5107811176940493 0 1 1
2850 950 2 0.52 17.428246102945117 8.191220915822969 -0.27070650416573516 1 0 0
336 112 2 0.52 17.29553517028175 0.7195067632158509 4.052707617435319 0 1 0
334 112 1 -1.04 17.212405296453415 -0.23125244825821398 3.9793715016771203 0 1 0
3036 1012 2 0.52 17.378827346588817 -0.02815826137687175 6.036950837651405 0 1 0
3292 1098 1 -1.04 3.269889947447101 17.533920446147132 0.8304336384122925 0 -1 1
1982 661 2 0.52 7.308396275679119 11.51304992230122 1.3680342132169054 1 1 1
91 31 1 -1.04 6.369892918416928 10.665446294949131 3.876531240273406 0 1 0
93 31 2 0.52 6.91440724599982 9.915251799411505 4.115161091553582 0 1 0
92 31 2 0.52 5.544069299171901 10.279393144773165 3.58462345494342 0 1 0
265 89 1 -1.04 4.865595980964425 8.747330495134358 1.1199591306852084 1 1 1
669 223 2 0.52 2.342183957891945 9.636302299874783 3.6719176414701056 1 1 0
2460 820 2 0.52 1.2311626158032252 11.959653843195099 3.8908014379070472 0 1 0
2458 820 1 -1.04 1.1454890936895248 12.896962531430649 3.716605253773224 0 1 0
2459 820 2 0.52 2.0091098672448533 13.258127467106512 3.9164824378687224 0 1 0
1833 611 2 0.52 3.2658647269579832 15.22112551117748 3.430525676076782 0 1 0
1831 611 1 -1.04 3.4994641484124105 14.482396192555253 3.992612986113308 0 1 0
495 165 2 0.52 5.183758296562319 13.105928391546321 1.3463284477772643 0 0 1
667 223 1 -1.04 1.5228951015751855 9.979548671398339 4.028540044511598 1 1 0
494 165 2 0.52 3.710779516520181 12.907075714203561 1.6338807352615476 0 0 1
668 223 2 0.52 1.4738855992434827 9.614070277557238 4.911860740700999 1 1 0
493 165 1 -1.04 4.567893519279656 12.935713549906946 2.0590481148191233 0 0 1
1832 611 2 0.52 3.8603768711506374 13.8293480734526 3.3930281291479507 0 1 0
714 238 2 0.52 4.161310978111147 15.72858784520913 5.151862853062134 0 0 0
2879 960 2 0.52 1.3321471553587496 16.490037053629052 6.584737288063285 0 1 0
712 238 1 -1.04 4.351384583051062 16.575976435887863 5.554400355777915 0 0 0
713 238 2 0.52 4.330405797318142 16.40453128196791 6.495887631181325 0 0 0
24 8 2 0.52 0.8363481838387334 12.451952578384539 1.427101056648374 0 1 1
1460 487 2 0.52 5.9741702384704505 11.618042723554543 5.372924102618722 -1 0 0
1969 657 1 -1.04 7.23269015520717 14.33294242774127 5.2816233775494 0 1 0
1971 657 2 0.52 7.678967808026474 14.692583495752729 6.048256535450667 0 1 0
1970 657 2 0.52 7.4073191699859615 14.964637174943775 4.583985725502041 0 1 0
3717 1239 2 0.52 1.11888603521556 16.720251224571882 3.3460020881505375 1 1 1
1461 487 2 0.52 5.999437274670572 13.11557028763906 5.593532269890501 -1 0 0
1459 487 1 -1.04 5.574650459008398 12.312934391372652 5.896127080262735 -1 0 0
3715 1239 1 -1.04 2.03874451336091 16.75612033573347 3.0836938209369436 1 1 1
3314 1105 2 0.52 0.08789281785529056 8.79652655206152 6.87219769728929 1 1 0
1981 661 1 -1.04 7.301103307771089 12.379478345411442 1.7748270846463692 1 1 1
3677 1226 2 0.52 6.60789271798135 14.609522313828144 -0.14357591192513278 0 0 1
22 8 1 -1.04 0.48914395424508056 11.87174315504684 0.7495775603603029 0 1 1
1983 661 2 0.52 6.845964043435344 12.250114159326687 2.606899796263897 1 1 1
2878 960 1 -1.04 0.5798919379805841 15.931249520860922 6.389543996297832 0 1 0
23 8 2 0.52 0.7853481771058463 12.25994035004251 -0.07370722399863454 0 1 1
2394 798 2 0.52 1.9025433448636435 10.49258357926194 0.39335536675069516 0 0 1
3875 1292 2 0.52 7.438080989020278 10.548349592243508 6.570595394145749 0 1 0
139 47 1 -1.04 8.667539085894848 11.63996823713003 5.947185900677423 0 0 1
141 47 2 0.52 8.62654174976018 12.585465340422024 5.803706682334444 0 0 1
883 295 1 -1.04 8.63687131480072 16.695851066614807 2.1472794222043077 0 0 0
884 295 2 0.52 8.512475722224968 15.768567628851327 2.3495243296736095 0 0 0
2348 783 2 0.52 7.432940229199799 17.688567308759538 1.0130360850121498 0 1 0
3293 1098 2 0.52 2.7724776257772024 17.347083657139585 1.6266150477181804 0 -1 1
266 89 2 0.52 4.091004159243325 9.298664226125412 1.0091869916146334 1 1 1
2392 798 1 -1.04 2.4820440953352993 9.791602916009115 0.09496496819802998 0 0 1
2393 798 2 0.52 2.071491416513265 8.988294192723673 0.41492345457644686 0 0 1
3191 1064 2 0.52 -0.2551347853362955 16.345562588975028 4.737398414716125 1 0 0
3716 1239 2 0.52 2.4145864323178268 17.453246936548425 3.6212709729727885 1 1 1
2719 907 1 -1.04 15.766447406558184 13.604797645899364 4.18075443901328 -1 -1 1
677 226 2 0.52 12.67431429767943 11.673872391422174 3.1159360214155556 0 1 0
678 226 2 0.52 13.439459856269261 10.38008710464714 2.9354724581321125 0 1 0
676 226 1 -1.04 12.73174621779784 10.77638334802365 3.4437268564477677 0 1 0
2278 760 1 -1.04 15.950531729872287 10.270703686450505 5.181839604528771 1 0 1
2280 760 2 0.52 15.680258571243016 9.866518411509736 4.357328523192922 1 0 1
1681 561 1 -1.04 15.226002632601281 9.363844527549226 2.7221086328219384 0 1 1
1682 561 2 0.52 15.852010520065514 10.08191658427845 2.62873579856471 0 1 1
2279 760 2 0.52 15.181107362181075 10.200796284602573 5.746933346813935 1 0 1
2721 907 2 0.52 15.917748252406678 13.851337504860608 5.0932005974187495 -1 -1 1
4407 1469 2 0.52 8.947476126149564 8.972766342480169 5.388196210608198 0 0 0
2581 861 1 -1.04 10.654876391737535 12.0213836607664 0.3039103142926079 0 1 0
633 211 2 0.52 10.873060512020652 9.249789934925387 5.297713682541194 0 1 0
632 211 2 0.52 11.761396652962333 10.442867994747075 5.016077684048078 0 1 0
3156 1052 2 0.52 16.727170947474367 17.387620066677655 5.597795842814679 -1 0 0
2583 861 2 0.52 11.483951323737417 12.40180527065095 0.5939896066632251 0 1 0
1273 425 1 -1.04 10.885250071610738 15.324270838364471 0.5199791206663711 0 -1 0
631 211 1 -1.04 11.022554698717391 10.159643993486313 5.554713527412923 0 1 0
3095 1032 2 0.52 8.95170243105231 13.244085049178269 2.316377849934861 0 1 0
3096 1032 2 0.52 9.908256571285682 14.273307531026273 1.7528173372662699 0 1 0
3094 1032 1 -1.04 9.499304497218588 13.987213802626657 2.5696039799622863 0 1 0
1485 495 2 0.52 10.219224938127898 16.797944823961913 5.158433124893562 0 -1 1
140 47 2 0.52 9.595657643267408 11.423651798411758 5.857547840675435 0 0 1
1483 495 1 -1.04 10.011148254632692 15.863827533546488 5.139437821985226 0 -1 1
2720 907 2 0.52 15.957060097590984 12.667249750878494 4.150711360622884 -1 -1 1
1769 590 2 0.52 12.721648306428007 14.374621393098627 4.030717481606735 0 0 1
1770 590 2 0.52 11.451408977981284 14.048604119399226 3.2743445725895746 0 0 1
1484 495 2 0.52 10.248478531560359 15.583015733434427 4.25566697353453 0 -1 1
2655 885 2 0.52 14.517094485428146 15.40136657736762 5.196279544923409 0 -1 0
2654 885 2 0.52 13.6319750786533 15.736290399887485 6.377924525718182 0 -1 0
2653 885 1 -1.04 13.62408641496689 15.66022988495582 5.42378386153204 0 -1 0
1557 519 2 0.52 16.963159077232394 10.937765472080939 6.802160507166798 0 0 0
1768 590 1 -1.04 12.405250558361116 14.0243417318868 3.1979939596863276 0 0 1
4101 1367 2 0.52 13.202107815323892 13.4221051732351 1.0651497763577922 0 0 1
4099 1367 1 -1.04 13.126221994830967 13.071433637988598 0.17773631206058146 0 0 1
2147 716 2 0.52 8.97945009758133 13.502610619121965 -0.1294049977563647 1 0 1
885 295 2 0.52 9.579236719311034 16.786321731344472 2.0058780671701895 0 0 0
1473 491 2 0.52 11.901869435440295 16.065167682197224 2.8839576692596958 0 -1 0
1274 425 2 0.52 11.648005665188021 15.037578737879489 0.01774074699698029 0 -1 0
4100 1367 2 0.52 13.85551054606015 13.466876957120174 -0.2997515206642314 0 0 1
876 292 2 0.52 15.172635178576364 15.761494864913752 -0.006998842582852374 1 0 0
875 292 2 0.52 16.442766457004822 15.167345695167665 0.5636573511327533 1 0 0
1471 491 1 -1.04 11.3033932301153 16.78235699984434 2.6749180693924433 0 -1 0
1472 491 2 0.52 11.868272177002838 17.47300042957315 2.3282838697876613 0 -1 0
3007 1003 1 -1.04 17.625589010217293 10.669705381629234 2.3859106011348037 1 0 0
1275 425 2 0.52 11.250295037948854 15.8503891156584 1.231437883243987 0 -1 0
874 292 1 -1.04 15.90856495376837 15.191580383793827 -0.23024016984026754 1 0 0
3154 1052 1 -1.04 17.415304027877024 16.742904296189487 5.762253372102324 -1 0 0
2462 821 2 0.52 10.255938425858247 14.884914901014762 6.835657205948539 -1 0 0
2463 821 2 0.52 11.086447653470204 13.61918297043704 6.827154586020857 -1 0 0
67 23 1 -1.04 15.895524677802404 13.774764805574856 6.777745666585608 1 0 0
258 86 2 0.52 14.062558350901233 12.883211527506456 6.838225618889244 -1 0 0
2453 818 2 0.52 13.882124393824402 17.563298087484284 -0.2931205747918877 0 0 0
1889 630 2 0.52 16.357372091150385 15.11427010051989 3.2721605646756085 1 0 1
1888 630 1 -1.04 16.514276552843036 15.905370681999212 2.7566290914520812 1 0 1
1890 630 2 0.52 15.656412204937892 16.325423236331677 2.6945287517424026 1 0 1
890 297 2 0.52 15.498046122150589 10.484351636394466 -0.0949170616481555 -1 0 1
2452 818 1 -1.04 13.401290565553841 16.759983384684595 -0.09383144348633195 0 0 0
3984 1328 2 0.52 3.2267488466860015 0.412154871108183 11.716425987235546 0 1 0
3512 1171 2 0.52 1.1343435017707186 3.1074074300999537 7.118219117295358 0 0 1
1695 565 2 0.52 7.803010279083447 2.6542299146062627 7.460782324946156 0 1 0
1590 530 2 0.52 1.135511519345595 6.253726541456556 8.583869524479377 0 0 0
1589 530 2 0.52 2.359300857812641 6.955112087681178 9.133681458125633 0 0 0
2936 979 2 0.52 7.815536497201727 1.3811459883726183 11.152706167078534 0 0 0
3333 1111 2 0.52 5.860149810285127 -0.001779503476211771 12.882485743353625 1 0 0
3331 1111 1 -1.04 5.993286630727393 -0.19178435619451398 13.81114315218964 1 0 0
2935 979 1 -1.04 7.029760309682015 1.7532269892842747 10.75227720722727 0 0 0
2937 979 2 0.52 6.911852735724408 2.5951010922606823 11.192251795972005 0 0 0
3828 1276 2 0.52 5.128571984767664 1.1271617210861076 8.127179783043898 0 1 0
1694 565 2 0.52 6.86610133103625 2.7009550091363925 8.649022023150396 0 1 0
1693 565 1 -1.04 6.8792318916861825 2.5784466475872754 7.6997848927516905 0 1 0
1439 480 2 0.52 3.263857033360203 5.249974793523198 7.594826473979202 1 0 0
1438 480 1 -1.04 4.088487155728376 4.921947735683229 7.953456158483853 1 0 0
1440 480 2 0.52 4.336568008690419 4.205931369932008 7.368641406301557 1 0 0
833 278 2 0.52 2.4276444147960174 0.6704978151957569 8.27358746596471 0 0 0
834 278 2 0.52 1.0822152978044912 0.3185074017685607 7.67540820204376 0 0 0
3983 1328 2 0.52 1.9852420827943078 1.213008500759009 11.385987474249355 0 1 0
3505 1169 1 -1.04 0.5191932194434551 4.015173241074509 9.051269320771206 1 1 0
3507 1169 2 0.52 1.1648703036191561 4.166164987778455 9.741584057248458 1 1 0
832 278 1 -1.04 1.4872635129645873 0.7155491862066568 8.446463067021496 0 0 0
3506 1169 2 0.52 0.01369044337409618 3.2616744403857707 9.356127223320582 1 1 0
620 207 2 0.52 3.2722396133878084 4.394396760437685 10.03187714352249 0 0 0
619 207 1 -1.04 2.5869122435190763 4.1653584047381305 10.659650723507543 0 0 0
3589 1197 1 -1.04 3.3361927250898664 3.2673293265848344 13.247795032927602 0 0 0
615 205 2 0.52 5.64941267150493 0.7269664705962418 10.730302128248082 0 1 0
613 205 1 -1.04 4.937605149889417 0.1386811193417043 10.982258945323757 0 1 0
1588 530 1 -1.04 1.4062860919859579 7.026410221275104 9.079725251232126 0 0 0
627 209 2 0.52 6.145678620209554 6.699901362699676 11.421039732718972 0 0 0
626 209 2 0.52 6.6501370767048344 5.612206584722727 10.496736250409008 0 0 0
621 207 2 0.52 2.488124415255836 4.947196837158503 11.202975185111736 0 0 0
625 209 1 -1.04 5.888922402344007 5.871550590272182 11.015893978198264 0 0 0
733 245 1 -1.04 7.924995636631174 5.249509942446996 9.719777544030805 0 0 0
3591 1197 2 0.52 2.6896542995421737 3.387957981288594 12.552332142505207 0 0 0
1316 439 2 0.52 3.4900247712862718 6.829353934355847 11.937332840096502 0 1 0
1315 439 1 -1.04 2.55950254171707 6.629904448785891 11.834473115308606 0 1 0
3590 1197 2 0.52 3.0359816645748485 2.4924158100259457 13.72278366542188 0 0 0
3258 1086 2 0.52 4.729576661430277 7.227819682629287 9.738372120083008 0 0 0
1317 439 2 0.52 2.111047397062855 7.431539555037914 12.103733174837446 0 1 0
734 245 2 0.52 7.953391175800971 6.155014688124247 9.410768338809937 0 0 0
157 53 1 -1.04 0.004745162906073256 3.8422726854092057 12.684251752407619 0 0 0
4102 1368 1 -1.04 5.677881420208819 3.617034907864125 12.308769495249024 1 1 0
4104 1368 2 0.52 5.661875562651485 4.506673402963523 11.955896996233966 1 1 0
4103 1368 2 0.52 4.812411507556481 3.498469672050346 12.700095389038303 1 1 0
122 41 2 0.52 7.4659081365860684 8.360754921876477 13.172767984847852 1 1 0
121 41 1 -1.04 7.407201896243704 8.07952253978529 12.259699660674803 1 1 0
123 41 2 0.52 8.2915167549174 7.784846823338732 12.042018028777136 1 1 0
2842 948 1 -1.04 4.3741083812329995 8.596265628342913 14.071325452393692 1 0 0
159 53 2 0.52 0.311559565216594 4.528923677899586 12.092130838195992 0 0 0
3273 1091 2 0.52 7.007542778550256 8.395887835814872 7.936497584939645 0 1 0
3271 1091 1 -1.04 7.1573583393686695 7.584461782535744 8.42165209413906 0 1 0
3272 1091 2 0.52 6.711806156270958 6.911444892287889 7.907100485864465 0 1 0
3257 1086 2 0.52 4.182195288767168 8.539541538527244 10.25957706767975 0 0 0
3256 1086 1 -1.04 4.052772187084534 7.884394123888628 9.573819555257769 0 0 0
3481 1161 1 -1.04 0.9443698807111875 8.258754809332405 13.649865230701806 1 0 0
2424 808 2 0.52 6.818515421633718 3.231342726658243 13.760223988841272 0 0 0
3826 1276 1 -1.04 4.352216455717386 0.5825299555175126 8.257103500842835 0 1 0
3483 1161 2 0.52 0.09331524949422326 8.384791834940389 14.069451363528012 1 0 0
2285 762 2 0.52 0.2694594464691141 8.539862400794034 10.075938505033964 1 1 0
3827 1276 2 0.52 4.5798703647073475 0.011209686957944177 8.990587439627191 0 1 0
3982 1328 1 -1.04 2.286286264657222 0.4563658416138124 11.889074074079021 0 1 0
2517 839 2 0.52 2.11794353543457 0.9102049565052138 13.488470259548352 1 1 0
1453 485 1 -1.04 17.712353514431356 1.36078433443368 12.373272945778908 0 0 0
2379 793 2 0.52 9.849409517904704 3.7138572372265783 7.0164584226240505 1 1 1
130 44 1 -1.04 16.045255809251998 2.7250315781757988 7.7826038280497505 -1 1 0
752 251 2 0.52 11.412993182369998 4.823252563235273 7.905831899951078 0 0 0
735 245 2 0.52 8.82910736696741 5.050510360409738 9.96311472864798 0 0 0
751 251 1 -1.04 11.3023309709529 4.013597775130331 8.40427431293679 0 0 0
705 235 2 0.52 10.035014768915559 0.514912041628619 12.098089663003751 0 0 0
888 296 2 0.52 10.810784623891683 7.4189293086763515 7.684517774251356 1 0 0
886 296 1 -1.04 10.078454605491153 6.805480977555319 7.62447004994561 1 0 0
3686 1229 2 0.52 10.713434184847442 1.4673176240498909 7.213857569590457 0 0 0
3685 1229 1 -1.04 11.021012554644734 0.563447975810796 7.282026810637833 0 0 0
753 251 2 0.52 12.147748135789055 3.8777068586418006 8.832100581667808 0 0 0
887 296 2 0.52 9.391321436900409 7.198641084721216 8.162526718667172 1 0 0
4443 1481 2 0.52 14.116684593043242 0.7879550383342167 9.672998696205754 -1 1 0
1698 566 2 0.52 12.66146963301799 0.38779880491678764 12.724115277212942 0 1 1
3912 1304 2 0.52 13.877041346314098 4.853006105637656 8.865994009656141 0 0 1
3910 1304 1 -1.04 13.805537620805236 3.9995990320285983 9.29356321335582 0 0 1
2355 785 2 0.52 11.362617026033066 8.12978262411428 9.234216742114507 1 1 0
4081 1361 1 -1.04 10.401268508573791 3.949908548726631 10.996769102210855 0 0 0
4082 1361 2 0.52 10.782384799130515 3.9398042223315928 10.118771314252147 0 0 0
3911 1304 2 0.52 14.11562666550193 4.151706007616585 10.186278225180182 0 0 1
4083 1361 2 0.52 10.144599372277519 3.0418682735722054 11.157441605055622 0 0 0
2613 871 2 0.52 14.150123212853334 2.2439259564874012 13.005604702433109 0 1 0
2611 871 1 -1.04 14.605093262409468 3.0715658198121125 13.161317099636223 0 1 0
2612 871 2 0.52 14.807227115607882 3.4026415788800417 12.286238481940215 0 1 0
333 111 2 0.52 14.270009798759231 6.188890394991123 13.64008787715537 0 -1 0
332 111 2 0.52 14.987027861387524 4.856895866990304 13.580331145158885 0 -1 0
331 111 1 -1.04 15.097726271307845 5.785888341240242 13.377968389622964 0 -1 0
3019 1007 1 -1.04 10.500879089210923 7.425569036994571 10.650502104577098 0 0 0
3020 1007 2 0.52 10.816530500994745 6.547857861043154 10.865488424720638 0 0 0
3021 1007 2 0.52 10.931483545864841 7.997728021802593 11.285675890255662 0 0 0
1432 478 1 -1.04 14.27681508754433 6.8573395071121865 8.91076335449884 0 0 0
1433 478 2 0.52 14.683955269729278 7.41059537584945 9.577379177712018 0 0 0
1434 478 2 0.52 13.477857657215802 7.32446504835106 8.666442677426422 0 0 0
4442 1481 2 0.52 15.04942086217744 1.939057819078222 9.984223104283418 -1 1 0
704 235 2 0.52 9.722537044555274 0.30563625275101886 10.631646173555033 0 0 0
703 235 1 -1.04 9.614123650820373 0.9326605764343324 11.346711816393762 0 0 0
4441 1481 1 -1.04 15.035028163701169 1.0530853323592178 9.622176915230812 -1 1 0
1696 566 1 -1.04 13.542692598329376 0.4005497648658766 12.350597756301022 0 1 1
2353 785 1 -1.04 11.830055701900337 8.532457859048586 8.50237961578512 1 1 0
132 44 2 0.52 15.533292562081302 3.5240785271446384 7.907701577390113 -1 1 0
131 44 2 0.52 15.633055956064071 2.082953307426702 8.360581868518159 -1 1 0
1767 589 2 0.52 10.185361756882905 4.375845909346908 12.94838216324725 0 0 0
1765 589 1 -1.04 10.038203041297702 4.66742579338344 13.848136198332703 0 0 0
2992 998 1 -1.04 17.591634556071803 6.378768206133445 13.905301489162861 1 0 0
2993 998 2 0.52 16.659351011097563 6.349408539003366 13.690319532440274 1 0 0
3850 1284 1 -1.04 15.935237202077344 3.6315959153871624 10.784372999260784 0 0 0
1455 485 2 0.52 17.42100023895924 0.9924019511277243 13.207323021338818 0 0 0
3034 1012 1 -1.04 17.46050414333905 0.1774907040919355 6.968223753543535 0 1 0
3852 1284 2 0.52 16.42378607544514 3.560924469523928 9.964277038369218 0 0 0
879 293 2 0.52 17.3659841609865 5.9503009399499875 7.678788252072084 0 0 0
3851 1284 2 0.52 16.423686727013067 3.087738823090689 11.402327985282332 0 0 0
3876 1292 2 0.52 6.003953291017225 10.57322211837903 7.054903452144328 0 1 0
796 266 1 -1.04 5.508819620837662 15.270729158849086 7.953740127980293 0 0 1
798 266 2 0.52 5.870842109872551 14.653771277964653 8.589770418648571 0 0 1
3874 1292 1 -1.04 6.796681567729473 10.036811769073783 7.063715742371818 0 1 0
2880 960 2 0.52 0.5183064230424151 15.340776085208173 7.140396968682066 0 1 0
1820 607 2 0.52 5.88826839369784 17.64912370037801 11.022666556647598 0 1 0
4197 1399 2 0.52 1.6607623885602354 13.409886492399838 7.811541450696462 0 0 0
4195 1399 1 -1.04 0.7687804625852716 13.49264224744318 8.14881221542593 0 0 0
4196 1399 2 0.52 0.627718719758399 12.691568769235184 8.653405821432179 0 0 0
797 266 2 0.52 5.030320640734088 14.721819403798088 7.33247637815282 0 0 1
198 66 2 0.52 5.774978247930457 16.30276701826792 12.567473172913429 1 0 1
1601 534 2 0.52 -0.21349051010069525 17.238424909809204 12.606746988942527 0 0 0
1000 334 1 -1.04 3.4199852878386188 12.639935210380406 7.848493742170567 0 0 0
1001 334 2 0.52 3.2095241386381446 11.745636282222184 8.117133597315465 0 0 0
1002 334 2 0.52 3.7156540081721317 12.554941067012907 6.942078912520496 0 0 0
1129 377 1 -1.04 2.2385221002698645 13.921102661916317 11.019124395339782 1 0 0
1130 377 2 0.52 1.9593177030861662 13.772640347614061 11.92258202346924 1 0 0
1131 377 2 0.52 1.5425190800036372 14.45619752293424 10.637699270980491 1 0 0
2002 668 1 -1.04 2.480400531595722 9.967745454347318 8.294310381316407 0 0 0
422 141 2 0.52 3.5570079616883064 10.314035007508178 11.324990990948004 1 0 0
718 240 1 -1.04 0.00437561991370022 16.132852917698788 9.405857441421455 0 0 0
2004 668 2 0.52 3.0129760118313706 9.389903044952344 8.840838832319994 0 0 0
2003 668 2 0.52 2.2078770698326107 9.418733601652265 7.559090150100619 0 0 0
1628 543 2 0.52 6.284579273581422 12.482039106758661 9.256216479152073 1 0 1
1627 543 1 -1.04 5.729552745527698 13.215055767847742 9.522419348637815 1 0 1
1629 543 2 0.52 4.901056939378934 13.066668523161695 9.066559979085765 1 0 1
3463 1155 1 -1.04 4.918832401623566 15.19503928009804 11.546166036967842 1 -1 0
421 141 1 -1.04 4.136910075595601 9.605622880617469 11.604450534996932 1 0 0
2844 948 2 0.52 3.9600034972836573 8.959433307049952 13.28847283393231 1 0 0
423 141 2 0.52 5.013255268020231 9.990024269654775 11.582393431369542 1 0 0
3464 1155 2 0.52 5.558786934251472 14.681052456338259 11.053715449425976 1 -1 0
4110 1370 2 0.52 7.92818888114183 13.702770748757699 12.977678710802152 1 1 0
3465 1155 2 0.52 4.070191354803721 14.844520899304184 11.275653415491188 1 -1 0
720 240 2 0.52 0.18099302135204096 16.52847819230518 10.25939055478132 0 0 0
4426 1476 1 -1.04 2.0013240551156515 11.137213036357368 10.505913962905069 0 1 0
3608 1203 2 0.52 5.012500716251839 13.30320093538022 13.105035539855916 1 0 0
1602 534 2 0.52 1.217062430920814 16.743926594183662 12.636494098994895 0 0 0
4428 1476 2 0.52 1.951747191640092 12.086354121015663 10.392313012109746 0 1 0
466 156 1 -1.04 7.614472561907374 11.289552651168416 9.288746810502815 0 1 0
4427 1476 2 0.52 2.0423425259393615 10.790650739932222 9.614598137987878 0 1 0
40 14 1 -1.04 7.631197289342646 12.214615979198669 13.885887189667605 1 -1 0