ITEM: TIMESTEP
0
ITEM: NUMBER OF ATOMS
4500
ITEM: BOX BOUNDS
0.000000 36.098855
0.000000 35.652671
0.000000 35.877237
ITEM: ATOMS id type x y z vx vy vz mass
2982 2 2.447480 1.793870 5.555960 0.00478525 -0.0073553 -0.00238532 15.9994
2981 2 2.553110 1.094510 4.054300 -0.00851013 0.00430559 -0.000423399 15.9994
2980 1 2.079730 1.071570 4.961420 0.000762112 -0.0158237 -0.0026577 1.00794
1783 1 4.167880 3.116510 0.671477 0.0248895 0.0214104 0.0145941 1.00794
1784 2 4.668340 3.472730 -0.129504 -0.00125452 0.0063038 -0.00579173 15.9994
4288 1 3.408110 1.054850 2.346900 0.0171559 -0.0101747 -0.00733235 1.00794
4289 2 3.929530 1.802650 1.960490 -0.00451834 -0.00456793 0.00168772 15.9994
3766 1 5.438200 5.442280 2.444090 -0.022414 0.0276294 -0.00550295 1.00794
4290 2 2.813090 0.656976 1.623400 0.00264335 -0.00402796 0.0010464 15.9994
3768 2 5.218190 5.669320 1.505390 0.000837117 0.00739073 0.00144231 15.9994
1785 2 3.530640 3.806310 0.956410 0.000168665 0.00338164 0.00129359 15.9994
3648 2 3.712980 4.184100 5.494430 0.000299172 0.000365963 0.00563564 15.9994
3046 1 3.548540 5.658000 4.489470 -0.0101576 0.0127424 0.0196501 1.00794
3047 2 4.276590 5.658410 3.740870 -0.0041336 -0.00258374 0.00494958 15.9994
3048 2 2.646850 5.790120 4.064550 0.00794353 -0.00766539 -0.00699917 15.9994
2334 2 4.563010 0.113476 2.754300 0.000270175 0.00330489 0.00107177 15.9994
2333 2 5.735570 0.691932 3.799740 -0.00565569 -9.551e-05 -0.000783853 15.9994
1620 2 3.278170 -0.018871 -0.184291 -0.000262243 -0.00336918 -0.00146924 15.9994
1606 1 1.721010 5.363110 0.075406 0.00506468 0.0120176 0.00262036 1.00794
1607 2 0.817680 5.754250 0.348714 -0.00118923 -0.000208025 0.000470798 15.9994
3291 2 0.312371 5.649420 3.353420 -0.012182 -0.0036124 0.00421172 15.9994
3289 1 1.209240 5.810280 2.905820 0.004075 -0.00463042 -0.000743356 1.00794
3290 2 1.339590 5.136950 2.187540 0.00265341 -0.00154323 0.00679428 15.9994
2255 2 5.855460 1.109980 5.450910 0.00619745 -0.00313418 0.00304832 15.9994
2254 1 6.306220 1.800680 4.848230 -0.0201785 0.00411532 -0.00929056 1.00794
2256 2 6.752230 2.536730 5.401550 0.00776898 -0.00430272 -0.0037782 15.9994
3665 2 6.242990 2.523700 1.696080 -0.00730966 -0.00153849 0.00393813 15.9994
831 2 9.108380 5.421660 2.649120 0.000756416 0.00378045 -0.00148934 15.9994
169 1 9.514040 5.732000 0.809181 0.0057272 0.0091437 -0.00698781 1.00794
170 2 9.118950 5.239010 0.000094 0.000527765 0.00130639 -0.00211603 15.9994
866 2 11.621100 3.266030 1.070770 -0.00464895 -0.00342188 0.00159448 15.9994
865 1 11.437900 2.353730 1.483610 -0.00500901 0.0117748 0.0179606 1.00794
398 2 8.446000 1.825420 2.802980 -0.00813116 -0.00196486 0.00870049 15.9994
3161 2 11.053800 5.388010 1.565340 -0.0027933 -0.00211677 -0.00010257 15.9994
419 2 10.619900 0.926812 0.548598 -0.00112689 0.00490078 -0.00111506 15.9994
397 1 9.242190 2.378390 3.095280 0.0089612 -0.0347818 0.000308924 1.00794
829 1 8.347510 5.492750 3.310970 0.00963205 0.0246439 0.00176555 1.00794
3666 2 6.292300 0.976350 2.213920 -0.00207605 -0.00430254 -0.000610357 15.9994
3664 1 6.798810 1.681050 1.664690 0.000913109 -0.00544215 0.0114391 1.00794
2894 2 7.852520 2.735500 0.640854 -0.006475 0.000610421 -0.00611179 15.9994
2893 1 8.319620 3.213740 -0.091944 -0.00602716 0.00529507 0.0109785 1.00794
399 2 9.785110 2.460930 2.288870 -0.00973592 -0.00541263 -0.000754777 15.9994
830 2 8.496270 4.806620 3.997390 0.00262017 0.00324424 -0.0042051 15.9994
2537 2 10.834600 2.232200 4.360920 -0.00129113 -0.00580413 -0.00526063 15.9994
2536 1 11.273500 2.280700 5.272640 0.00342485 -0.000106512 -0.00400403 1.00794
2930 2 8.618440 2.897570 4.566050 0.000168836 -0.0037874 0.0065652 15.9994
2929 1 8.763340 3.531900 5.321960 0.00622147 0.000632646 -0.0035508 1.00794
3015 2 11.249600 0.128284 5.362760 -0.00623484 -0.00595529 0.000658936 15.9994
2931 2 9.634890 3.305180 5.715410 0.00740443 -9.70344e-06 -0.00173138 15.9994
418 1 10.006500 0.136169 0.421644 0.00509559 0.00404407 -0.0055575 1.00794
2910 2 16.180500 1.144660 3.799600 -0.00463615 -0.0076 -0.0010459 15.9994
211 1 12.139400 5.752580 4.463760 -0.00700271 -0.00156021 -0.00314904 1.00794
213 2 12.028800 5.403510 3.497720 -0.000262965 0.00786998 0.0031606 15.9994
3160 1 11.989100 5.234720 1.892620 -9.22216e-06 0.000759563 0.00167352 1.00794
3162 2 12.654300 5.749420 1.313050 -0.000408195 -0.00557926 -0.00184487 15.9994
2909 2 16.090600 0.922295 5.389250 -0.00561976 0.00314828 0.000347731 15.9994
1033 1 16.591200 3.904220 0.962092 -0.0171848 -0.0152691 0.0161858 1.00794
2082 2 13.907800 1.300470 1.645010 -0.00297318 0.00246106 0.00497853 15.9994
2081 2 14.307400 1.227130 3.344080 -2.66583e-05 0.00279716 0.00464731 15.9994
2080 1 13.589300 1.179690 2.640500 -0.00587491 0.000587472 -0.00131609 1.00794
1034 2 17.530400 3.521290 0.988711 0.0032312 -0.00619354 -0.00443663 15.9994
2908 1 15.520600 1.123590 4.567330 0.00327007 0.00612675 -0.00271985 1.00794
2105 2 15.221600 4.775180 4.448090 0.00110805 -0.00275838 0.00240668 15.9994
1035 2 16.066400 3.680260 1.780310 0.000411444 -0.00161136 0.00140084 15.9994
2106 2 15.115400 3.382050 3.725710 -0.00583361 -0.000184665 0.00156232 15.9994
867 2 12.296600 1.964760 1.873430 0.00110808 -0.000166966 0.00422934 15.9994
1715 2 15.475100 2.822480 0.404450 -0.00218718 0.00154319 -0.0042922 15.9994
1714 1 14.805900 2.056730 0.408003 -0.0129828 0.0234434 -0.0011583 1.00794
2104 1 15.315600 4.329610 3.541450 -0.0053923 0.00209259 -0.00600598 1.00794
2538 2 12.284500 2.137360 5.260490 0.0034954 -0.0103645 -0.000845899 15.9994
810 2 17.677500 1.125170 1.581720 0.000630736 -0.00150389 0.000644011 15.9994
808 1 17.421000 1.197740 2.536770 -0.0182989 -0.0097251 -0.00393127 1.00794
2500 1 3.751900 7.084050 -0.071118 0.00684886 0.00443912 -0.00867916 1.00794
692 2 2.199350 8.312450 4.242310 -0.000683373 -0.00208836 0.00309565 15.9994
691 1 1.216710 8.227760 4.142740 0.00334906 -0.0110159 -0.0209177 1.00794
1361 2 4.287590 8.195420 1.201120 -0.0044091 0.00578225 -0.00819825 15.9994
1362 2 5.439410 8.842350 2.005190 0.00230579 0.00579945 -0.000735868 15.9994
1360 1 4.440820 8.866830 1.917640 0.00534631 -0.0047848 0.00891738 1.00794
1209 2 2.214730 9.634680 1.717740 -0.00881611 -0.00151386 -0.00124217 15.9994
1737 2 1.664760 10.820900 5.556160 0.0069027 0.00157774 0.00194712 15.9994
690 2 4.925290 10.909400 0.944661 0.00178426 0.00204926 0.00162705 15.9994
693 2 1.008350 7.365070 3.659880 0.00298898 -0.000636161 -0.00761124 15.9994
1207 1 1.541890 10.284100 1.370000 0.00479984 0.00259227 0.00874667 1.00794
1208 2 0.643778 10.116300 1.788290 0.00232977 0.00226565 0.00444352 15.9994
1467 2 2.830820 11.802600 4.554670 -0.002202 0.0014185 -0.000915557 15.9994
4269 2 4.480030 9.617530 4.921940 -0.00365177 -0.00466428 -0.00292208 15.9994
4267 1 3.728620 9.752080 4.250630 -0.0124487 -0.0230095 -0.00814354 1.00794
4268 2 4.049400 9.408950 3.342820 0.000220932 -0.00839198 -0.00569742 15.9994
1736 2 0.936685 9.385650 5.429600 -0.00138424 -0.00102603 0.00231752 15.9994
2501 2 2.927800 6.477210 0.038617 -0.00524393 0.00189193 0.0017901 15.9994
688 1 5.408790 11.223400 0.138621 -0.00147199 -0.0109096 0.00752751 1.00794
2495 2 1.672480 11.118100 -0.103171 -0.00470105 -0.00224043 -0.0023 15.9994
3767 2 6.214690 5.991520 2.775860 0.00418783 0.000845174 0.0016648 15.9994
171 2 9.561230 6.722490 0.567547 0.00691689 0.000557263 -0.00130765 15.9994
2832 2 7.105500 6.890930 3.841590 0.00396533 0.00349026 0.000381989 15.9994
2830 1 6.807890 7.711450 3.341090 -3.14781e-05 -0.0122096 0.00691361 1.00794
737 2 6.855700 9.105690 4.547340 0.00183573 -0.00137717 -0.00280752 15.9994
287 2 7.924060 11.139300 5.048110 0.00214162 -0.00108083 -0.00148578 15.9994
1981 1 11.199000 9.384330 2.667770 -0.015365 -0.002744 -0.00899485 1.00794
1983 2 11.020300 10.312700 3.033690 -0.00278435 -0.00152387 -0.00323295 15.9994
2261 2 9.660150 8.719750 2.195730 0.00713534 -0.00390255 -0.000942037 15.9994
2260 1 8.742720 8.664630 1.791930 0.00214104 0.0102747 0.00853873 1.00794
2262 2 8.557400 9.636290 1.541320 -0.000339457 0.0021753 0.00495307 15.9994
2831 2 7.632380 8.098640 2.960670 0.00395112 0.00167053 0.000227606 15.9994
2751 2 7.861250 8.393050 0.238600 -0.000237928 0.0034612 -0.00320571 15.9994
2962 1 7.975200 11.171100 0.731024 -0.016802 0.0178735 -0.0194572 1.00794
2964 2 7.056700 10.968900 0.435443 -0.00311933 -0.00244347 0.00518789 15.9994
736 1 6.821100 9.907370 5.143040 -0.000475322 0.00568234 -0.00121448 1.00794
14 2 9.370790 7.349600 5.505780 0.00616781 0.00350297 -0.00634769 15.9994
13 1 9.618680 8.293910 5.766640 -0.0123681 -0.00297639 0.00981158 1.00794
1982 2 11.916500 9.559280 2.020600 -0.00135789 0.00422282 0.00148265 15.9994
212 2 12.565300 6.685820 4.430140 -0.00550613 -0.00138484 -0.0019991 15.9994
4197 2 14.050300 11.375800 1.784060 0.000188177 -0.00728589 0.000602713 15.9994
4195 1 14.892400 11.689200 2.280630 0.00769004 0.00875774 -0.00800944 1.00794
3513 2 12.045200 8.826120 4.023520 -0.00439573 -0.00515998 0.00483173 15.9994
655 1 14.926300 8.728450 2.966730 0.00733159 0.0273245 0.00330465 1.00794
657 2 14.312400 8.720840 3.780260 0.00306264 0.00102054 0.000913324 15.9994
497 2 16.027600 7.558860 3.414950 -0.000979361 -0.000759676 -0.00442428 15.9994
656 2 14.572100 9.327770 2.259930 -0.000537568 -0.00159114 -0.00401219 15.9994
77 2 14.589800 11.275000 4.026900 0.00226599 0.00340647 0.000602151 15.9994
3512 2 12.768000 9.009450 5.374650 -0.00350147 0.00179818 -0.00479144 15.9994
3511 1 12.758700 8.398210 4.613080 -0.00699342 0.00546485 -0.00338095 1.00794
3019 1 13.336200 10.229300 0.858634 0.00697661 0.0227735 0.00835142 1.00794
3021 2 13.899900 9.605540 0.301656 0.00993969 -0.00443981 -0.000532638 15.9994
3020 2 12.801500 10.811400 0.242236 0.00679356 0.00254512 0.0101533 15.9994
76 1 14.396000 11.448200 5.012940 -0.00118955 -0.00894464 0.0210206 1.00794
78 2 15.289600 11.272000 5.427180 -0.000373379 0.00364326 0.00329978 15.9994
884 2 17.753800 7.294050 1.597630 -0.00376688 0.00418627 -0.00201917 15.9994
498 2 16.623300 5.993930 3.481600 0.00758334 0.0048429 0.00300896 15.9994
496 1 16.864600 6.989580 3.546390 0.00415487 -0.00674546 -0.0230484 1.00794
1305 2 17.178700 11.129600 3.117740 7.26279e-06 0.00193918 0.00259399 15.9994
479 2 0.175006 11.984500 4.877640 0.0023735 0.00187953 0.000320753 15.9994
961 1 2.131730 14.888800 5.325390 -0.0179432 0.0196366 0.0119838 1.00794
1465 1 2.070320 12.331300 4.926430 9.9251e-05 -0.00256801 -0.00874949 1.00794
1466 2 2.378310 13.308000 4.992910 0.00485695 0.00292496 0.00634766 15.9994
940 1 2.575510 13.156600 1.384560 -0.0029627 -0.0146847 0.0146951 1.00794
941 2 2.241030 12.586300 2.169230 0.00338846 -0.000909082 -0.00131237 15.9994
1366 1 4.775020 13.241100 4.569320 0.00112079 -0.00521457 -0.0412859 1.00794
426 2 4.897250 17.069100 3.151730 -0.00233274 -0.00639082 0.00850453 15.9994
962 2 3.009230 15.319200 5.572280 -0.00353139 0.00281864 -0.00263597 15.9994
1367 2 4.981280 14.218700 4.345180 -0.00687885 -0.00381035 0.00133199 15.9994
942 2 2.383110 14.142500 1.560090 0.00179391 -0.000462484 -0.00552982 15.9994
963 2 1.560520 15.475400 4.742870 0.00131007 -0.00318678 -0.00275807 15.9994
1368 2 5.579220 12.716100 4.351950 0.000959814 -0.00546569 -0.00253379 15.9994
3059 2 4.777140 14.788200 1.637340 -0.00970062 -0.00319608 -0.00270684 15.9994
2786 2 0.154022 17.539800 0.267854 0.000452708 0.000769052 -0.00373618 15.9994
1411 1 1.743600 15.908200 2.463980 -0.0199477 -0.00238767 -0.00566911 1.00794
1413 2 2.428330 16.624300 2.752980 -0.000635735 -0.00409978 -0.00215472 15.9994
1412 2 1.662330 16.025900 1.497450 -0.0016611 -0.00952509 -0.00524067 15.9994
424 1 4.079600 17.245700 2.580190 0.00274836 -0.0139543 -0.0024124 1.00794
920 2 3.427810 13.734200 -0.184930 0.00278228 0.00690537 0.00928514 15.9994
3058 1 5.714930 14.901000 1.265670 -0.0227462 -0.00327268 -0.00143238 1.00794
646 1 0.042562 17.352600 5.481480 -0.0089159 0.00604323 0.0128231 1.00794
647 2 1.008040 17.643400 5.300510 0.00289614 0.00519931 -0.00128494 15.9994
949 1 11.184700 12.066400 3.816150 0.00371491 0.00507929 0.000348341 1.00794
951 2 10.263400 12.005800 4.246290 0.00234902 0.00541075 -0.0033426 15.9994
2547 2 7.671540 16.763200 2.874710 0.00218192 -0.00512638 0.00159799 15.9994
1436 2 8.057440 14.172100 2.490690 -0.00129739 -0.00699565 -0.00410254 15.9994
1435 1 7.569450 13.302200 2.400920 0.000123602 0.010868 -0.00600187 1.00794
1437 2 7.637690 12.903700 3.305910 -0.00256464 0.0031062 0.0054257 15.9994
2963 2 7.920270 11.976900 1.372310 0.000509268 -0.00246907 0.00478099 15.9994
286 1 8.516570 11.996600 4.978020 0.0027027 0.00340397 0.0184351 1.00794
761 2 9.803890 15.535700 3.232270 0.00146762 -0.00525686 -0.00227385 15.9994
760 1 9.191960 15.448400 2.426360 0.00990617 0.00180726 -0.00505371 1.00794
762 2 9.756470 15.324200 1.626680 -0.00200271 0.00762564 0.00449368 15.9994
2545 1 6.843350 16.974900 3.426380 0.0199598 0.000506301 0.0205177 1.00794
1774 1 11.403400 16.693100 5.119100 -0.0124945 -0.000249165 -0.00355257 1.00794
1776 2 10.757300 17.051000 4.433810 0.0011084 0.000260748 0.0087529 15.9994
1675 1 7.209730 16.774900 -0.061352 -0.00261252 0.0162012 -0.0100537 1.00794
1676 2 7.053010 17.726100 0.289290 0.00284359 -0.00485259 0.00529494 15.9994
3060 2 6.248800 14.235400 1.770630 -0.00237738 -0.00271212 0.00123997 15.9994
1677 2 6.621630 16.137500 0.470395 -0.00406711 0.000586284 0.00922393 15.9994
950 2 11.835600 12.520900 4.425890 0.00486741 0.00284868 0.000710359 15.9994
1568 2 12.463200 16.101500 1.269550 -0.00294572 -0.00299895 0.01097 15.9994
4196 2 15.402500 12.164500 1.590180 0.0025388 -0.00417595 -0.000294851 15.9994
819 2 11.832900 13.692400 2.345620 0.0023801 0.000376147 0.0109734 15.9994
817 1 12.346500 14.282700 1.728590 -0.00224018 -0.00197609 0.0167941 1.00794
818 2 12.667300 13.716600 0.950099 0.00208265 0.00679709 -0.00306322 15.9994
3699 2 17.212700 13.336300 0.800839 0.00499427 0.00403071 -0.00167083 15.9994
1567 1 12.424000 17.044800 1.589930 -0.00924661 -0.0168128 0.00846439 1.00794
2370 2 13.890700 14.572600 2.862210 0.00374124 -0.00551578 -0.00611294 15.9994
3697 1 16.440600 13.260400 0.176047 0.0218368 -0.00345002 -0.00253082 1.00794
2369 2 14.734500 13.719900 3.854030 0.00450675 0.000358651 0.00110317 15.9994
2368 1 14.543700 14.666800 3.624210 0.0111573 0.00785422 -0.00185909 1.00794
2146 1 15.690100 16.651600 4.833400 -0.00127827 -0.0205371 0.00257433 1.00794
2148 2 15.272900 15.990800 4.189200 -0.00991385 -0.00524852 -0.00358532 15.9994
3884 2 13.435200 14.125500 5.302550 0.00409612 -0.0107194 -0.003266 15.9994
3698 2 16.095200 14.192100 -0.000963 0.00491132 -0.0017525 -0.00249417 15.9994
2147 2 16.602500 16.256700 4.959680 0.0087964 0.00575539 0.00933942 15.9994
1569 2 13.340400 17.338300 1.869110 0.00405813 -0.0026387 0.000872818 15.9994
1329 2 17.518100 11.981400 5.730280 0.00119184 0.00580974 0.00436 15.9994
3885 2 12.254500 15.016100 5.590410 -0.00316741 0.000403375 -0.00499537 15.9994
3646 1 3.827180 3.483680 6.202490 0.0102358 -0.00136096 0.0115161 1.00794
2402 2 1.859630 0.787948 6.677440 -0.00544328 0.000294835 0.0012849 15.9994
2401 1 2.240320 0.677841 7.629300 -0.0249115 -0.0129068 0.0169051 1.00794
2403 2 1.820530 1.336170 8.287990 -0.00191767 0.000292388 -0.000989948 15.9994
3974 2 5.216880 1.799610 7.313990 -0.00488466 0.00510811 0.00233493 15.9994
3647 2 4.785780 3.569070 6.479210 0.00767971 -0.00961933 -0.000977931 15.9994
2652 2 2.135230 2.818250 10.307700 0.0023056 0.00250554 0.00284431 15.9994
3975 2 3.930470 0.823270 6.807960 0.00550623 0.00818366 0.00455878 15.9994
2650 1 3.107430 2.925640 10.581100 -0.010428 0.0300931 0.00144583 1.00794
1861 1 1.927370 3.686210 8.255760 -0.00527008 -0.0098085 -0.00713115 1.00794
1862 2 2.506030 3.898760 7.482550 -0.000384119 0.00168078 0.00534644 15.9994
1863 2 2.542340 3.377610 9.032930 0.00346533 -0.00118536 0.00254144 15.9994
3973 1 4.949950 0.844548 7.026980 0.00148738 -0.00478662 0.0235609 1.00794
1792 1 0.701425 1.783960 10.010300 -0.00262568 -0.00765304 -0.0133276 1.00794
1793 2 0.496937 1.072290 10.687900 -0.00292335 0.00355689 0.00408864 15.9994
681 2 5.439970 4.799920 10.820700 0.00523618 0.000548925 0.0112919 15.9994
2651 2 3.193720 2.482520 11.483700 0.00131589 0.000748594 0.00397831 15.9994
680 2 4.027490 4.351060 11.383100 0.000373075 -0.000138088 -0.000720151 15.9994
679 1 4.826690 4.905320 11.636800 0.00378632 -0.0234756 0.0206223 1.00794
713 2 0.110356 4.032560 7.808410 0.000424808 -0.000843273 -0.00353719 15.9994
3036 2 4.865200 0.091856 8.583570 -0.00397723 0.00134713 0.00041575 15.9994
1794 2 -0.138477 2.007970 9.489310 0.000431096 -0.00262819 0.00424348 15.9994
4342 1 0.168474 5.581880 10.903600 -0.00595276 -0.013046 -0.0232254 1.00794
3331 1 0.006055 -0.021262 11.723800 -0.014698 0.00649021 -0.0120351 1.00794
3728 2 6.598290 3.606100 7.959190 0.00609487 0.00435142 -0.00463465 15.9994
3727 1 6.642110 3.454490 6.958910 0.00121623 0.0124726 -0.00777275 1.00794
985 1 6.480120 4.617310 9.542040 -0.00855251 0.0161916 0.00303508 1.00794
3904 1 7.646040 0.408168 9.350720 -0.00055769 0.00347904 0.0151929 1.00794
3905 2 8.104570 0.277079 10.227200 0.00649578 -0.000173206 0.00277905 15.9994
3729 2 7.631870 3.530080 6.797040 -0.00302538 -0.00440238 -0.00252132 15.9994
1065 2 10.879200 1.846940 10.184400 0.000963313 0.000488401 0.00135029 15.9994
1064 2 11.126800 0.241590 9.709590 0.0037589 0.00117161 -0.0079433 15.9994
1063 1 10.485000 1.047050 9.686030 -0.00268811 0.0242771 0.0181865 1.00794
1964 2 8.846620 2.577840 9.645280 -0.000727221 -0.00139882 -0.00192655 15.9994
1965 2 9.508490 3.995330 9.950590 -0.00128621 -0.00187611 0.000337444 15.9994
1963 1 8.818660 3.350160 10.295000 0.0133711 -0.014974 0.0067854 1.00794
986 2 7.331400 4.313230 9.984860 -0.00105802 -0.00463846 0.00406382 15.9994
3223 1 10.920000 4.770820 9.449290 0.00194218 -0.00436681 -0.00724167 1.00794
987 2 6.550750 5.562740 9.166630 0.0089741 0.00624603 -0.00077379 15.9994
380 2 11.571600 3.426060 6.473870 0.00413459 -0.00216819 -0.0099541 15.9994
381 2 11.566100 4.967880 6.095800 -0.00298952 -0.00901967 -0.0063693 15.9994
379 1 11.733900 4.349140 6.877150 0.00539984 -0.00384388 0.00420191 1.00794
3225 2 11.211000 4.884740 8.482150 0.0080956 0.00335363 0.00134742 15.9994
3224 2 11.586000 4.152740 9.859200 0.00175374 0.00115608 -0.000698231 15.9994
3906 2 6.682620 0.290806 9.570420 0.00238116 0.0101424 0.00115356 15.9994
3603 2 13.509400 5.322750 5.821280 0.0086992 0.0021741 -0.000629143 15.9994
3601 1 14.495700 5.246920 6.026290 -0.00860959 -0.00854126 -0.0269096 1.00794
1654 1 17.007200 0.722715 6.828410 0.0035702 0.00202747 -0.0112469 1.00794
1656 2 17.704300 1.445850 6.958400 -0.00282958 -0.00587499 -0.00230933 15.9994
612 2 15.771600 4.356550 7.122680 -0.00370341 0.00713866 0.00355624 15.9994
610 1 16.353900 3.583580 7.323190 0.0155759 -0.0121966 -0.0286789 1.00794
611 2 15.706800 2.848380 7.398390 -0.00135106 -0.000637946 0.00551117 15.9994
845 2 13.371700 1.788170 8.643310 -0.000588746 0.00438757 -0.00069029 15.9994
844 1 13.712000 2.455430 7.962810 0.0215082 0.000112625 0.00066654 1.00794
846 2 13.146800 3.301180 8.005250 -0.00183529 -0.00261927 -0.000842138 15.9994
2728 1 13.770000 5.300590 9.740160 0.0107981 -0.00139606 -0.00517003 1.00794
2730 2 14.677400 5.362030 9.343200 0.00159229 0.0084263 -0.00951114 15.9994
30 2 13.019000 2.184760 10.925100 -0.00246043 0.00380934 0.0115729 15.9994
1655 2 16.996400 0.242900 7.686910 0.00309651 -0.00231123 0.0118511 15.9994
1222 1 13.785400 0.704388 10.029300 0.00145575 0.00943618 -0.00416102 1.00794
28 1 12.481700 3.047140 10.967100 0.0134314 -0.0112479 0.0112289 1.00794
29 2 13.182700 3.824980 10.843600 0.00138879 -0.00571268 -0.00400541 15.9994
1223 2 14.181300 0.795076 10.960800 -0.000750603 0.00105513 -0.000294144 15.9994
3434 2 17.229600 4.213800 11.092300 0.00695995 0.00036056 0.00151423 15.9994
2844 2 3.498200 6.939250 6.090970 0.00155099 -0.00436581 0.00140009 15.9994
1735 1 1.083760 10.175600 6.049250 0.023582 -0.00961825 -0.000426234 1.00794
4389 2 4.807250 8.695300 7.241750 0.00337281 -0.00374547 -0.00278384 15.9994
4387 1 5.583150 9.333920 7.374850 0.00966925 -0.026971 0.00912488 1.00794
2842 1 3.845470 7.452420 6.875170 0.00530488 -0.0340658 0.0118872 1.00794
4388 2 5.546930 9.813770 8.272270 -0.000439802 -0.00418461 -0.00220146 15.9994
2843 2 3.468040 7.049170 7.758050 -0.00387018 -0.00470232 -0.00195211 15.9994
4007 2 5.708360 7.079910 7.857640 -0.00238267 0.00348589 -0.000571982 15.9994
609 2 2.863270 5.897780 9.997000 0.00369046 0.00240862 -0.00455795 15.9994
607 1 3.300760 6.234740 9.155050 -0.00196344 -0.000681433 -0.00336901 1.00794
608 2 4.287460 6.037300 9.237320 -0.00176669 -0.00926267 -0.00577673 15.9994
3928 1 0.525562 7.448090 6.942430 0.0131243 0.00495897 -0.0162464 1.00794
3929 2 0.706596 6.463520 6.999720 -0.00665881 -0.000382623 0.00816776 15.9994
3986 2 2.849940 10.057700 9.654190 -0.00865362 2.63327e-05 0.00224429 15.9994
3985 1 3.233400 10.444000 10.524200 0.00708454 -0.0122732 -0.00989142 1.00794
3987 2 2.678640 10.099400 11.309800 -0.0006866 0.00284632 0.00725129 15.9994
1847 2 4.937820 10.070700 10.451300 0.00730198 0.00201632 -0.00156875 15.9994
4455 2 1.959460 9.618810 7.649790 -0.00127521 -0.000337473 0.00123372 15.9994
4453 1 1.728460 9.534300 8.627140 -0.0181087 -0.0340247 0.00620935 1.00794
4454 2 0.719941 9.690010 8.726360 -0.0037846 -0.00704646 0.00041592 15.9994
3930 2 1.046180 7.927060 7.674490 0.00725996 0.00298388 0.00643646 15.9994
4343 2 0.460287 6.362420 11.468000 -0.00474712 -0.00102523 0.00210024 15.9994
4006 1 5.984920 7.085740 8.817860 0.00818227 -0.00148641 0.00430947 1.00794
738 2 6.306230 9.623030 5.958550 0.00123993 -0.00742971 -0.00402379 15.9994
4008 2 6.117270 8.036320 9.070670 -0.00387063 -0.00195074 -0.00190789 15.9994
1848 2 6.407480 10.664500 10.235400 0.00597538 -0.000809972 -0.00394508 15.9994
1846 1 5.873850 9.802060 10.252800 0.00119547 0.0170388 0.0030456 1.00794
15 2 8.791220 8.824480 5.879410 0.0010678 -0.00226778 -0.00241887 15.9994
3256 1 9.073490 9.950930 11.193700 -0.0257631 0.00141152 0.026608 1.00794
3257 2 8.534700 9.223340 10.738400 0.0035735 0.00309406 0.00803975 15.9994
4115 2 11.744400 7.820310 8.768080 -0.00184906 -0.00012883 0.00975241 15.9994
887 2 11.158400 9.943160 7.727500 -0.00252351 0.00435262 -0.00615797 15.9994
886 1 10.314200 9.546810 8.002200 0.00374349 -0.0125504 0.00621004 1.00794
888 2 10.015200 8.876040 7.276640 -0.00544014 -0.00230298 0.00177629 15.9994
3258 2 9.981330 9.550360 11.270500 -0.00181114 -0.00214217 -0.000694952 15.9994
4151 2 9.666480 11.061200 8.723340 -0.00225138 0.00100139 -0.00320162 15.9994
3602 2 14.833600 6.183610 6.251260 0.00825871 -0.00664616 -0.00565134 15.9994
2729 2 13.258200 6.072470 9.313330 -0.00175391 -0.0061556 -0.00094191 15.9994
4116 2 12.183400 7.992530 10.275100 -0.00832555 -0.00268506 0.00488196 15.9994
4114 1 12.525100 7.691650 9.388210 0.00880671 0.00384804 0.0116949 1.00794
855 2 13.410300 10.641400 6.268470 0.00350711 -0.00270467 -0.00315815 15.9994
853 1 12.953100 10.016000 6.894220 -0.0185873 0.00444804 -0.00975617 1.00794
1506 2 13.421400 9.834530 9.932240 4.10207e-06 0.00431136 0.0085939 15.9994
854 2 13.441900 10.168200 7.782060 0.000540736 -0.00206816 -0.000303043 15.9994
4224 2 15.391200 8.512060 7.051490 -0.00569995 -0.00613295 -0.00216201 15.9994
1505 2 14.557900 11.017400 9.948950 0.0036572 0.00499828 0.00254477 15.9994
1504 1 13.900100 10.529100 9.352030 0.0246758 -0.00956696 0.00641375 1.00794
4222 1 15.161300 7.605970 7.469250 -0.0371009 0.0014429 0.00278165 1.00794
4223 2 15.234600 7.716720 8.472790 -0.00139166 0.00436978 -0.00150868 15.9994
2321 2 16.386500 11.815100 11.692900 0.00336118 0.00508645 0.00117344 15.9994
1327 1 16.859600 11.249900 6.007350 0.00664654 0.0029154 0.0123765 1.00794
1328 2 17.260900 10.604800 6.729810 0.000608192 0.00698632 0.00983058 15.9994
1270 1 16.617100 7.969350 10.012400 -0.00782703 -0.00538793 -0.00307755 1.00794
1271 2 16.164500 8.025720 10.930700 0.000767389 -0.00484165 0.00774221 15.9994
3849 2 17.190900 9.338680 8.992760 0.00423615 -0.0051378 -0.00133512 15.9994
1272 2 17.049600 7.048070 10.012900 0.00204463 0.0026423 0.00202722 15.9994
3847 1 17.444800 9.717950 8.088540 -0.0193318 0.00255263 -0.0240645 1.00794
1967 2 3.792180 12.359600 6.991260 -0.00194811 -0.00260077 0.0106671 15.9994
3529 1 4.766280 15.743200 6.216530 0.0080823 -0.00423278 0.0108284 1.00794
2967 2 2.726300 15.313600 8.220780 -0.0065786 0.0031113 -0.000629773 15.9994
242 2 2.312180 17.449400 8.444240 -0.0022802 0.00154235 0.00236915 15.9994
2965 1 2.619620 16.007000 8.937270 -0.0141614 -0.0154986 0.0264035 1.00794
1966 1 3.455330 12.604400 7.884560 0.00436264 -0.0296589 0.0196002 1.00794
1968 2 2.501600 12.319400 7.991830 0.000456876 0.000345717 0.0026636 15.9994
900 2 0.959327 15.216000 9.524400 -0.00371791 -0.000110651 0.00260033 15.9994
898 1 0.405852 14.532900 10.040600 -0.00755599 0.000183573 -0.00978703 1.00794
899 2 0.944043 13.750800 10.381100 -0.00586973 -0.00886742 0.0010807 15.9994
3530 2 5.349860 15.257000 6.899880 0.000396251 0.00229346 0.00169982 15.9994
2966 2 3.492950 15.899700 9.458170 -0.00616641 -0.00333953 0.000846254 15.9994
3531 2 4.910360 16.741500 6.276110 -0.000624823 0.00622809 0.00172419 15.9994
3123 2 5.108720 13.716900 7.980960 0.000814841 -0.00115922 -0.00370058 15.9994
3994 1 2.954020 13.068100 11.153100 -0.0224054 0.00659873 -0.0211961 1.00794
3995 2 3.156430 12.139200 10.831200 -0.00507875 -0.0036388 -0.00142943 15.9994
3996 2 3.699720 13.699300 10.843200 -0.00457044 0.00458638 -0.0015596 15.9994
317 2 5.498920 14.570400 11.615300 -0.000407021 0.000698561 -0.00514669 15.9994
316 1 5.048950 14.952100 10.776000 -0.0138947 0.00691807 0.00757297 1.00794
1665 2 6.027890 17.248200 11.728300 -0.00241263 0.00283565 0.00413765 15.9994
318 2 5.750320 15.481300 10.267200 0.00255657 -0.00262072 -0.00108636 15.9994
288 2 8.499340 12.559700 5.816600 0.00228222 0.00318384 0.00554554 15.9994
3777 2 6.632540 16.413000 8.686580 -0.000425771 0.00359819 -0.00703891 15.9994
3121 1 6.019650 14.057600 8.179780 -0.00327026 0.0120551 0.0156042 1.00794
3122 2 6.370930 13.479400 8.954450 -0.00814014 -0.00566324 -0.00354477 15.9994
3775 1 6.553150 16.764800 9.604960 0.0305115 0.00590096 0.00835998 1.00794
2122 1 10.167400 16.727100 7.580150 0.0170652 -0.0107993 -0.00902928 1.00794
2123 2 10.545800 16.731300 8.541790 0.00382493 0.00126517 -0.00281991 15.9994
3075 2 10.618700 15.619700 10.604400 0.000486393 0.00402844 0.00286774 15.9994
2124 2 9.790920 15.813800 7.369430 0.00578887 0.00115358 -0.00288717 15.9994
4150 1 9.680130 12.068400 8.856760 0.00974194 -0.0142258 0.0124439 1.00794
4152 2 10.615300 12.460300 8.705090 -0.00475596 -0.000609902 0.00456788 15.9994
2880 2 9.145490 13.602600 7.842670 0.00307553 -0.0023237 0.00282342 15.9994
2878 1 8.789540 14.270000 7.173590 0.00780423 -0.013584 0.00318277 1.00794
1145 2 7.398880 12.210900 10.746100 -0.00138317 -0.00120025 -0.00754531 15.9994
1144 1 7.103920 12.192900 9.809680 -0.00941078 0.0182438 0.00970057 1.00794
2879 2 7.812670 14.519900 7.392720 0.00408898 0.00807799 -0.00176963 15.9994
1146 2 7.915910 12.164400 9.224520 0.000477307 0.00177095 -0.003758 15.9994
599 2 9.157200 13.777300 11.337500 -0.00293048 0.00115546 0.00139625 15.9994
598 1 9.480820 14.722600 11.455400 -0.00437979 0.00265778 -0.022365 1.00794
3073 1 11.227400 16.242500 10.108000 0.0113611 -0.0225899 0.00959455 1.00794
852 2 8.628610 17.419400 7.021540 0.00268731 0.00673501 0.00302227 15.9994
3074 2 11.180500 17.079900 10.659500 -0.00776477 0.00498809 0.00651061 15.9994
1775 2 11.062200 16.886000 6.071260 0.00254322 -0.00381558 -0.00181758 15.9994
850 1 7.661090 17.670500 6.908360 0.0139817 0.00134612 0.00868661 1.00794
2530 1 17.021300 13.427300 9.749630 -0.00541166 0.000531446 0.00748328 1.00794
2320 1 15.392200 11.840600 11.545500 -0.00291744 0.00134433 0.00425206 1.00794
118 1 12.241200 13.113000 8.244790 -0.0179788 -0.0148677 -0.00289568 1.00794
3883 1 12.791000 14.298900 5.998540 0.0020526 0.00249522 -0.00071041 1.00794
1514 2 16.940000 16.200000 8.878440 0.00871663 -0.00385645 0.00176844 15.9994
120 2 13.072900 12.683400 8.579760 -0.00118062 -0.00398562 -0.00238991 15.9994
1513 1 16.152900 16.006400 9.505050 0.00142533 -0.00355003 0.0106834 1.00794
119 2 12.468800 13.657900 7.422120 0.00624596 -0.0025785 0.00120165 15.9994
1515 2 15.335500 16.401300 9.028400 -0.000749261 0.000609853 0.000968805 15.9994
721 1 13.598200 16.684200 8.275240 0.00414213 -0.00692582 0.011855 1.00794
80 2 16.448900 17.320600 10.725600 0.0021037 -0.00384388 0.0074152 15.9994
722 2 13.441600 16.441500 7.327770 0.0024267 0.00466758 0.00341404 15.9994
723 2 12.810200 16.395500 8.832050 0.00541964 -0.0022628 -0.000668412 15.9994
2532 2 16.250300 12.849400 9.927950 -0.00321362 0.00541132 0.00224179 15.9994
2531 2 16.630900 14.351100 9.856450 -0.00608994 0.00946412 -0.00567715 15.9994
3782 2 0.004823 5.413160 14.038400 -0.00292995 -0.00179619 0.00316353 15.9994
4315 1 4.300280 1.791070 12.982600 0.00363724 0.0089815 -0.0160185 1.00794
4316 2 4.731830 2.463570 13.612000 -0.00191393 0.00595358 -0.00223695 15.9994
4317 2 5.106860 1.463250 12.478100 -0.00229503 0.000845284 -0.00283561 15.9994
2860 1 2.100330 5.120290 16.682600 -0.00697802 -0.00569116 -0.00216006 1.00794
2325 2 2.469690 5.522330 13.700800 -0.000794766 0.00116387 0.00163427 15.9994
2324 2 3.941140 5.828070 13.110100 -0.00318488 -0.00129103 -0.00302384 15.9994
2268 2 5.643160 4.447570 13.266100 0.00257802 -0.0083657 -9.01661e-05 15.9994
2862 2 2.952610 4.579530 16.836000 0.00320495 -0.00452812 0.00106508 15.9994
3750 2 2.458240 1.624520 13.225300 0.00375486 0.000783466 0.00624999 15.9994
4324 1 3.772680 3.195180 17.503900 0.0146267 0.00531988 0.00597753 1.00794
4326 2 4.483410 3.352550 16.822900 -0.00152272 -0.00116696 -0.00354689 15.9994
3748 1 1.523640 1.636880 13.561600 0.0153224 -0.00453892 -0.00349182 1.00794
2676 2 0.599058 4.449390 12.411100 0.0069043 0.0036747 -0.000804257 15.9994
3749 2 1.449110 0.995334 14.309700 0.00665855 0.00252422 -0.00238957 15.9994