ITEM: TIMESTEP
0
ITEM: NUMBER OF ATOMS
8640
ITEM: BOX BOUNDS pp pp pp
-7.5694412000000000e-01 4.4165557999999997e+01
3.8127473000000001e-01 4.7066074000000000e+01
1.7900842000000000e-01 4.4193866999999997e+01
ITEM: ATOMS id type x y z
1 2 0 2.59334 4.12639
2 1 0 3.50916 3.8469
3 1 0 2.63456 5.08297
4 2 0 2.59334 11.4622
5 1 0 3.50916 11.1827
6 1 0 2.63456 12.4188
7 2 0 2.59334 18.798
8 1 0 3.50916 18.5185
9 1 0 2.63456 19.7546
10 2 0 2.59334 26.1338
11 1 0 3.50916 25.8543
12 1 0 2.63456 27.0904
13 2 0 2.59334 33.4696
14 1 0 3.50916 33.1902
15 1 0 2.63456 34.4262
16 2 0 2.59334 40.8054
17 1 0 3.50916 40.5259
18 1 0 2.63456 41.762
19 2 0 10.3742 4.12639
20 1 0 11.2899 3.8469
21 1 0 10.4154 5.08297
22 2 0 10.3742 11.4622
23 1 0 11.2899 11.1827
24 1 0 10.4154 12.4188
25 2 0 10.3742 18.798
26 1 0 11.2899 18.5185
27 1 0 10.4154 19.7546
28 2 0 10.3742 26.1338
29 1 0 11.2899 25.8543
30 1 0 10.4154 27.0904
31 2 0 10.3742 33.4696
32 1 0 11.2899 33.1902
33 1 0 10.4154 34.4262
34 2 0 10.3742 40.8054
35 1 0 11.2899 40.5259
36 1 0 10.4154 41.762
37 2 0 18.1549 4.12639
38 1 0 19.0707 3.8469
39 1 0 18.1962 5.08297
40 2 0 18.1549 11.4622
41 1 0 19.0707 11.1827
42 1 0 18.1962 12.4188
43 2 0 18.1549 18.798
44 1 0 19.0707 18.5185
45 1 0 18.1962 19.7546
46 2 0 18.1549 26.1338
47 1 0 19.0707 25.8543
48 1 0 18.1962 27.0904
49 2 0 18.1549 33.4696
50 1 0 19.0707 33.1902
51 1 0 18.1962 34.4262
52 2 0 18.1549 40.8054
53 1 0 19.0707 40.5259
54 1 0 18.1962 41.762
55 2 0 25.9357 4.12639
56 1 0 26.8516 3.8469
57 1 0 25.977 5.08297
58 2 0 25.9357 11.4622
59 1 0 26.8516 11.1827
60 1 0 25.977 12.4188
61 2 0 25.9357 18.798
62 1 0 26.8516 18.5185
63 1 0 25.977 19.7546
64 2 0 25.9357 26.1338
65 1 0 26.8516 25.8543
66 1 0 25.977 27.0904
67 2 0 25.9357 33.4696
68 1 0 26.8516 33.1902
69 1 0 25.977 34.4262
70 2 0 25.9357 40.8054
71 1 0 26.8516 40.5259
72 1 0 25.977 41.762
73 2 0 33.7166 4.12639
74 1 0 34.6323 3.8469
75 1 0 33.7578 5.08297
76 2 0 33.7166 11.4622
77 1 0 34.6323 11.1827
78 1 0 33.7578 12.4188
79 2 0 33.7166 18.798
80 1 0 34.6323 18.5185
81 1 0 33.7578 19.7546
82 2 0 33.7166 26.1338
83 1 0 34.6323 25.8543
84 1 0 33.7578 27.0904
85 2 0 33.7166 33.4696
86 1 0 34.6323 33.1902
87 1 0 33.7578 34.4262
88 2 0 33.7166 40.8054
89 1 0 34.6323 40.5259
90 1 0 33.7578 41.762
91 2 0 41.4973 4.12639
92 1 0 42.4131 3.8469
93 1 0 41.5386 5.08297
94 2 0 41.4973 11.4622
95 1 0 42.4131 11.1827
96 1 0 41.5386 12.4188
97 2 0 41.4973 18.798
98 1 0 42.4131 18.5185
99 1 0 41.5386 19.7546
100 2 0 41.4973 26.1338
101 1 0 42.4131 25.8543
102 1 0 41.5386 27.0904
103 2 0 41.4973 33.4696
104 1 0 42.4131 33.1902
105 1 0 41.5386 34.4262
106 2 0 41.4973 40.8054
107 1 0 42.4131 40.5259
108 1 0 41.5386 41.762
109 2 4.49225 2.59334 4.12639
110 1 4.49225 3.50916 3.8469
111 1 4.49225 2.63456 5.08297
112 2 4.49225 2.59334 11.4622
113 1 4.49225 3.50916 11.1827
114 1 4.49225 2.63456 12.4188
115 2 4.49225 2.59334 18.798
116 1 4.49225 3.50916 18.5185
117 1 4.49225 2.63456 19.7546
118 2 4.49225 2.59334 26.1338
119 1 4.49225 3.50916 25.8543
120 1 4.49225 2.63456 27.0904
121 2 4.49225 2.59334 33.4696
122 1 4.49225 3.50916 33.1902
123 1 4.49225 2.63456 34.4262
124 2 4.49225 2.59334 40.8054
125 1 4.49225 3.50916 40.5259
126 1 4.49225 2.63456 41.762
127 2 4.49225 10.3742 4.12639
128 1 4.49225 11.2899 3.8469
129 1 4.49225 10.4154 5.08297
130 2 4.49225 10.3742 11.4622
131 1 4.49225 11.2899 11.1827
132 1 4.49225 10.4154 12.4188
133 2 4.49225 10.3742 18.798
134 1 4.49225 11.2899 18.5185
135 1 4.49225 10.4154 19.7546
136 2 4.49225 10.3742 26.1338
137 1 4.49225 11.2899 25.8543
138 1 4.49225 10.4154 27.0904
139 2 4.49225 10.3742 33.4696
140 1 4.49225 11.2899 33.1902
141 1 4.49225 10.4154 34.4262
142 2 4.49225 10.3742 40.8054
143 1 4.49225 11.2899 40.5259
144 1 4.49225 10.4154 41.762
145 2 4.49225 18.1549 4.12639
146 1 4.49225 19.0707 3.8469
147 1 4.49225 18.1962 5.08297
148 2 4.49225 18.1549 11.4622
149 1 4.49225 19.0707 11.1827
150 1 4.49225 18.1962 12.4188
151 2 4.49225 18.1549 18.798
152 1 4.49225 19.0707 18.5185
153 1 4.49225 18.1962 19.7546
154 2 4.49225 18.1549 26.1338
155 1 4.49225 19.0707 25.8543
156 1 4.49225 18.1962 27.0904
157 2 4.49225 18.1549 33.4696
158 1 4.49225 19.0707 33.1902
159 1 4.49225 18.1962 34.4262
160 2 4.49225 18.1549 40.8054
161 1 4.49225 19.0707 40.5259
162 1 4.49225 18.1962 41.762
163 2 4.49225 25.9357 4.12639
164 1 4.49225 26.8516 3.8469
165 1 4.49225 25.977 5.08297
166 2 4.49225 25.9357 11.4622
167 1 4.49225 26.8516 11.1827
168 1 4.49225 25.977 12.4188
169 2 4.49225 25.9357 18.798
170 1 4.49225 26.8516 18.5185
171 1 4.49225 25.977 19.7546
172 2 4.49225 25.9357 26.1338
173 1 4.49225 26.8516 25.8543
174 1 4.49225 25.977 27.0904
175 2 4.49225 25.9357 33.4696
176 1 4.49225 26.8516 33.1902
177 1 4.49225 25.977 34.4262
178 2 4.49225 25.9357 40.8054
179 1 4.49225 26.8516 40.5259
180 1 4.49225 25.977 41.762
181 2 4.49225 33.7166 4.12639
182 1 4.49225 34.6323 3.8469
183 1 4.49225 33.7578 5.08297
184 2 4.49225 33.7166 11.4622
185 1 4.49225 34.6323 11.1827
186 1 4.49225 33.7578 12.4188
187 2 4.49225 33.7166 18.798
188 1 4.49225 34.6323 18.5185
189 1 4.49225 33.7578 19.7546
190 2 4.49225 33.7166 26.1338
191 1 4.49225 34.6323 25.8543
192 1 4.49225 33.7578 27.0904
193 2 4.49225 33.7166 33.4696
194 1 4.49225 34.6323 33.1902
195 1 4.49225 33.7578 34.4262
196 2 4.49225 33.7166 40.8054
197 1 4.49225 34.6323 40.5259
198 1 4.49225 33.7578 41.762
199 2 4.49225 41.4973 4.12639
200 1 4.49225 42.4131 3.8469
201 1 4.49225 41.5386 5.08297
202 2 4.49225 41.4973 11.4622
203 1 4.49225 42.4131 11.1827
204 1 4.49225 41.5386 12.4188
205 2 4.49225 41.4973 18.798
206 1 4.49225 42.4131 18.5185
207 1 4.49225 41.5386 19.7546
208 2 4.49225 41.4973 26.1338
209 1 4.49225 42.4131 25.8543
210 1 4.49225 41.5386 27.0904
211 2 4.49225 41.4973 33.4696
212 1 4.49225 42.4131 33.1902
213 1 4.49225 41.5386 34.4262
214 2 4.49225 41.4973 40.8054
215 1 4.49225 42.4131 40.5259
216 1 4.49225 41.5386 41.762
217 2 8.9845 2.59334 4.12639
218 1 8.9845 3.50916 3.8469
219 1 8.9845 2.63456 5.08297
220 2 8.9845 2.59334 11.4622
221 1 8.9845 3.50916 11.1827
222 1 8.9845 2.63456 12.4188
223 2 8.9845 2.59334 18.798
224 1 8.9845 3.50916 18.5185
225 1 8.9845 2.63456 19.7546
226 2 8.9845 2.59334 26.1338
227 1 8.9845 3.50916 25.8543
228 1 8.9845 2.63456 27.0904
229 2 8.9845 2.59334 33.4696
230 1 8.9845 3.50916 33.1902
231 1 8.9845 2.63456 34.4262
232 2 8.9845 2.59334 40.8054
233 1 8.9845 3.50916 40.5259
234 1 8.9845 2.63456 41.762
235 2 8.9845 10.3742 4.12639
236 1 8.9845 11.2899 3.8469
237 1 8.9845 10.4154 5.08297
238 2 8.9845 10.3742 11.4622
239 1 8.9845 11.2899 11.1827
240 1 8.9845 10.4154 12.4188
241 2 8.9845 10.3742 18.798
242 1 8.9845 11.2899 18.5185
243 1 8.9845 10.4154 19.7546
244 2 8.9845 10.3742 26.1338
245 1 8.9845 11.2899 25.8543
246 1 8.9845 10.4154 27.0904
247 2 8.9845 10.3742 33.4696
248 1 8.9845 11.2899 33.1902
249 1 8.9845 10.4154 34.4262
250 2 8.9845 10.3742 40.8054
251 1 8.9845 11.2899 40.5259
252 1 8.9845 10.4154 41.762
253 2 8.9845 18.1549 4.12639
254 1 8.9845 19.0707 3.8469
255 1 8.9845 18.1962 5.08297
256 2 8.9845 18.1549 11.4622
257 1 8.9845 19.0707 11.1827
258 1 8.9845 18.1962 12.4188
259 2 8.9845 18.1549 18.798
260 1 8.9845 19.0707 18.5185
261 1 8.9845 18.1962 19.7546
262 2 8.9845 18.1549 26.1338
263 1 8.9845 19.0707 25.8543
264 1 8.9845 18.1962 27.0904
265 2 8.9845 18.1549 33.4696
266 1 8.9845 19.0707 33.1902
267 1 8.9845 18.1962 34.4262
268 2 8.9845 18.1549 40.8054
269 1 8.9845 19.0707 40.5259
270 1 8.9845 18.1962 41.762
271 2 8.9845 25.9357 4.12639
272 1 8.9845 26.8516 3.8469
273 1 8.9845 25.977 5.08297
274 2 8.9845 25.9357 11.4622
275 1 8.9845 26.8516 11.1827
276 1 8.9845 25.977 12.4188
277 2 8.9845 25.9357 18.798
278 1 8.9845 26.8516 18.5185
279 1 8.9845 25.977 19.7546
280 2 8.9845 25.9357 26.1338
281 1 8.9845 26.8516 25.8543
282 1 8.9845 25.977 27.0904
283 2 8.9845 25.9357 33.4696
284 1 8.9845 26.8516 33.1902
285 1 8.9845 25.977 34.4262
286 2 8.9845 25.9357 40.8054
287 1 8.9845 26.8516 40.5259
288 1 8.9845 25.977 41.762
289 2 8.9845 33.7166 4.12639
290 1 8.9845 34.6323 3.8469
291 1 8.9845 33.7578 5.08297
292 2 8.9845 33.7166 11.4622
293 1 8.9845 34.6323 11.1827
294 1 8.9845 33.7578 12.4188
295 2 8.9845 33.7166 18.798
296 1 8.9845 34.6323 18.5185
297 1 8.9845 33.7578 19.7546
298 2 8.9845 33.7166 26.1338
299 1 8.9845 34.6323 25.8543
300 1 8.9845 33.7578 27.0904
301 2 8.9845 33.7166 33.4696
302 1 8.9845 34.6323 33.1902
303 1 8.9845 33.7578 34.4262
304 2 8.9845 33.7166 40.8054
305 1 8.9845 34.6323 40.5259
306 1 8.9845 33.7578 41.762
307 2 8.9845 41.4973 4.12639
308 1 8.9845 42.4131 3.8469
309 1 8.9845 41.5386 5.08297
310 2 8.9845 41.4973 11.4622
311 1 8.9845 42.4131 11.1827
312 1 8.9845 41.5386 12.4188
313 2 8.9845 41.4973 18.798
314 1 8.9845 42.4131 18.5185
315 1 8.9845 41.5386 19.7546
316 2 8.9845 41.4973 26.1338
317 1 8.9845 42.4131 25.8543
318 1 8.9845 41.5386 27.0904
319 2 8.9845 41.4973 33.4696
320 1 8.9845 42.4131 33.1902
321 1 8.9845 41.5386 34.4262
322 2 8.9845 41.4973 40.8054
323 1 8.9845 42.4131 40.5259
324 1 8.9845 41.5386 41.762
325 2 13.4767 2.59334 4.12639
326 1 13.4767 3.50916 3.8469
327 1 13.4767 2.63456 5.08297
328 2 13.4767 2.59334 11.4622
329 1 13.4767 3.50916 11.1827
330 1 13.4767 2.63456 12.4188
331 2 13.4767 2.59334 18.798
332 1 13.4767 3.50916 18.5185
333 1 13.4767 2.63456 19.7546
334 2 13.4767 2.59334 26.1338
335 1 13.4767 3.50916 25.8543
336 1 13.4767 2.63456 27.0904
337 2 13.4767 2.59334 33.4696
338 1 13.4767 3.50916 33.1902
339 1 13.4767 2.63456 34.4262
340 2 13.4767 2.59334 40.8054
341 1 13.4767 3.50916 40.5259
342 1 13.4767 2.63456 41.762
343 2 13.4767 10.3742 4.12639
344 1 13.4767 11.2899 3.8469
345 1 13.4767 10.4154 5.08297
346 2 13.4767 10.3742 11.4622
347 1 13.4767 11.2899 11.1827
348 1 13.4767 10.4154 12.4188
349 2 13.4767 10.3742 18.798
350 1 13.4767 11.2899 18.5185
351 1 13.4767 10.4154 19.7546
352 2 13.4767 10.3742 26.1338
353 1 13.4767 11.2899 25.8543
354 1 13.4767 10.4154 27.0904
355 2 13.4767 10.3742 33.4696
356 1 13.4767 11.2899 33.1902
357 1 13.4767 10.4154 34.4262
358 2 13.4767 10.3742 40.8054
359 1 13.4767 11.2899 40.5259
360 1 13.4767 10.4154 41.762
361 2 13.4767 18.1549 4.12639
362 1 13.4767 19.0707 3.8469
363 1 13.4767 18.1962 5.08297
364 2 13.4767 18.1549 11.4622
365 1 13.4767 19.0707 11.1827
366 1 13.4767 18.1962 12.4188
367 2 13.4767 18.1549 18.798
368 1 13.4767 19.0707 18.5185
369 1 13.4767 18.1962 19.7546
370 2 13.4767 18.1549 26.1338
371 1 13.4767 19.0707 25.8543
372 1 13.4767 18.1962 27.0904
373 2 13.4767 18.1549 33.4696
374 1 13.4767 19.0707 33.1902
375 1 13.4767 18.1962 34.4262
376 2 13.4767 18.1549 40.8054
377 1 13.4767 19.0707 40.5259
378 1 13.4767 18.1962 41.762
379 2 13.4767 25.9357 4.12639
380 1 13.4767 26.8516 3.8469
381 1 13.4767 25.977 5.08297
382 2 13.4767 25.9357 11.4622
383 1 13.4767 26.8516 11.1827
384 1 13.4767 25.977 12.4188
385 2 13.4767 25.9357 18.798
386 1 13.4767 26.8516 18.5185
387 1 13.4767 25.977 19.7546
388 2 13.4767 25.9357 26.1338
389 1 13.4767 26.8516 25.8543
390 1 13.4767 25.977 27.0904
391 2 13.4767 25.9357 33.4696
392 1 13.4767 26.8516 33.1902
393 1 13.4767 25.977 34.4262
394 2 13.4767 25.9357 40.8054
395 1 13.4767 26.8516 40.5259
396 1 13.4767 25.977 41.762
397 2 13.4767 33.7166 4.12639
398 1 13.4767 34.6323 3.8469
399 1 13.4767 33.7578 5.08297
400 2 13.4767 33.7166 11.4622
401 1 13.4767 34.6323 11.1827
402 1 13.4767 33.7578 12.4188
403 2 13.4767 33.7166 18.798
404 1 13.4767 34.6323 18.5185
405 1 13.4767 33.7578 19.7546
406 2 13.4767 33.7166 26.1338
407 1 13.4767 34.6323 25.8543
408 1 13.4767 33.7578 27.0904
409 2 13.4767 33.7166 33.4696
410 1 13.4767 34.6323 33.1902
411 1 13.4767 33.7578 34.4262
412 2 13.4767 33.7166 40.8054
413 1 13.4767 34.6323 40.5259
414 1 13.4767 33.7578 41.762
415 2 13.4767 41.4973 4.12639
416 1 13.4767 42.4131 3.8469
417 1 13.4767 41.5386 5.08297
418 2 13.4767 41.4973 11.4622
419 1 13.4767 42.4131 11.1827
420 1 13.4767 41.5386 12.4188
421 2 13.4767 41.4973 18.798
422 1 13.4767 42.4131 18.5185
423 1 13.4767 41.5386 19.7546
424 2 13.4767 41.4973 26.1338
425 1 13.4767 42.4131 25.8543
426 1 13.4767 41.5386 27.0904
427 2 13.4767 41.4973 33.4696
428 1 13.4767 42.4131 33.1902
429 1 13.4767 41.5386 34.4262
430 2 13.4767 41.4973 40.8054
431 1 13.4767 42.4131 40.5259
432 1 13.4767 41.5386 41.762
433 2 17.969 2.59334 4.12639
434 1 17.969 3.50916 3.8469
435 1 17.969 2.63456 5.08297
436 2 17.969 2.59334 11.4622
437 1 17.969 3.50916 11.1827
438 1 17.969 2.63456 12.4188
439 2 17.969 2.59334 18.798
440 1 17.969 3.50916 18.5185
441 1 17.969 2.63456 19.7546
442 2 17.969 2.59334 26.1338
443 1 17.969 3.50916 25.8543
444 1 17.969 2.63456 27.0904
445 2 17.969 2.59334 33.4696
446 1 17.969 3.50916 33.1902
447 1 17.969 2.63456 34.4262
448 2 17.969 2.59334 40.8054
449 1 17.969 3.50916 40.5259
450 1 17.969 2.63456 41.762
451 2 17.969 10.3742 4.12639
452 1 17.969 11.2899 3.8469
453 1 17.969 10.4154 5.08297
454 2 17.969 10.3742 11.4622
455 1 17.969 11.2899 11.1827
456 1 17.969 10.4154 12.4188
457 2 17.969 10.3742 18.798
458 1 17.969 11.2899 18.5185
459 1 17.969 10.4154 19.7546
460 2 17.969 10.3742 26.1338
461 1 17.969 11.2899 25.8543
462 1 17.969 10.4154 27.0904
463 2 17.969 10.3742 33.4696
464 1 17.969 11.2899 33.1902
465 1 17.969 10.4154 34.4262
466 2 17.969 10.3742 40.8054
467 1 17.969 11.2899 40.5259
468 1 17.969 10.4154 41.762
469 2 17.969 18.1549 4.12639
470 1 17.969 19.0707 3.8469
471 1 17.969 18.1962 5.08297
472 2 17.969 18.1549 11.4622
473 1 17.969 19.0707 11.1827
474 1 17.969 18.1962 12.4188
475 2 17.969 18.1549 18.798
476 1 17.969 19.0707 18.5185
477 1 17.969 18.1962 19.7546
478 2 17.969 18.1549 26.1338
479 1 17.969 19.0707 25.8543
480 1 17.969 18.1962 27.0904
481 2 17.969 18.1549 33.4696
482 1 17.969 19.0707 33.1902
483 1 17.969 18.1962 34.4262
484 2 17.969 18.1549 40.8054
485 1 17.969 19.0707 40.5259
486 1 17.969 18.1962 41.762
487 2 17.969 25.9357 4.12639
488 1 17.969 26.8516 3.8469
489 1 17.969 25.977 5.08297
490 2 17.969 25.9357 11.4622
491 1 17.969 26.8516 11.1827
492 1 17.969 25.977 12.4188
493 2 17.969 25.9357 18.798
494 1 17.969 26.8516 18.5185
495 1 17.969 25.977 19.7546
496 2 17.969 25.9357 26.1338
497 1 17.969 26.8516 25.8543
498 1 17.969 25.977 27.0904
499 2 17.969 25.9357 33.4696
500 1 17.969 26.8516 33.1902
501 1 17.969 25.977 34.4262
502 2 17.969 25.9357 40.8054
503 1 17.969 26.8516 40.5259
504 1 17.969 25.977 41.762
505 2 17.969 33.7166 4.12639
506 1 17.969 34.6323 3.8469
507 1 17.969 33.7578 5.08297
508 2 17.969 33.7166 11.4622
509 1 17.969 34.6323 11.1827
510 1 17.969 33.7578 12.4188
511 2 17.969 33.7166 18.798
512 1 17.969 34.6323 18.5185
513 1 17.969 33.7578 19.7546
514 2 17.969 33.7166 26.1338
515 1 17.969 34.6323 25.8543
516 1 17.969 33.7578 27.0904
517 2 17.969 33.7166 33.4696
518 1 17.969 34.6323 33.1902
519 1 17.969 33.7578 34.4262
520 2 17.969 33.7166 40.8054
521 1 17.969 34.6323 40.5259
522 1 17.969 33.7578 41.762
523 2 17.969 41.4973 4.12639
524 1 17.969 42.4131 3.8469
525 1 17.969 41.5386 5.08297
526 2 17.969 41.4973 11.4622
527 1 17.969 42.4131 11.1827
528 1 17.969 41.5386 12.4188
529 2 17.969 41.4973 18.798
530 1 17.969 42.4131 18.5185
531 1 17.969 41.5386 19.7546
532 2 17.969 41.4973 26.1338
533 1 17.969 42.4131 25.8543
534 1 17.969 41.5386 27.0904
535 2 17.969 41.4973 33.4696
536 1 17.969 42.4131 33.1902
537 1 17.969 41.5386 34.4262
538 2 17.969 41.4973 40.8054
539 1 17.969 42.4131 40.5259
540 1 17.969 41.5386 41.762
541 2 22.4612 2.59334 4.12639
542 1 22.4612 3.50916 3.8469
543 1 22.4612 2.63456 5.08297
544 2 22.4612 2.59334 11.4622
545 1 22.4612 3.50916 11.1827
546 1 22.4612 2.63456 12.4188
547 2 22.4612 2.59334 18.798
548 1 22.4612 3.50916 18.5185
549 1 22.4612 2.63456 19.7546
550 2 22.4612 2.59334 26.1338
551 1 22.4612 3.50916 25.8543
552 1 22.4612 2.63456 27.0904
553 2 22.4612 2.59334 33.4696
554 1 22.4612 3.50916 33.1902
555 1 22.4612 2.63456 34.4262
556 2 22.4612 2.59334 40.8054
557 1 22.4612 3.50916 40.5259
558 1 22.4612 2.63456 41.762
559 2 22.4612 10.3742 4.12639
560 1 22.4612 11.2899 3.8469
561 1 22.4612 10.4154 5.08297
562 2 22.4612 10.3742 11.4622
563 1 22.4612 11.2899 11.1827
564 1 22.4612 10.4154 12.4188
565 2 22.4612 10.3742 18.798
566 1 22.4612 11.2899 18.5185
567 1 22.4612 10.4154 19.7546
568 2 22.4612 10.3742 26.1338
569 1 22.4612 11.2899 25.8543
570 1 22.4612 10.4154 27.0904
571 2 22.4612 10.3742 33.4696
572 1 22.4612 11.2899 33.1902
573 1 22.4612 10.4154 34.4262
574 2 22.4612 10.3742 40.8054
575 1 22.4612 11.2899 40.5259
576 1 22.4612 10.4154 41.762
577 2 22.4612 18.1549 4.12639
578 1 22.4612 19.0707 3.8469
579 1 22.4612 18.1962 5.08297
580 2 22.4612 18.1549 11.4622
581 1 22.4612 19.0707 11.1827
582 1 22.4612 18.1962 12.4188
583 2 22.4612 18.1549 18.798
584 1 22.4612 19.0707 18.5185
585 1 22.4612 18.1962 19.7546
586 2 22.4612 18.1549 26.1338
587 1 22.4612 19.0707 25.8543
588 1 22.4612 18.1962 27.0904
589 2 22.4612 18.1549 33.4696
590 1 22.4612 19.0707 33.1902
591 1 22.4612 18.1962 34.4262
592 2 22.4612 18.1549 40.8054
593 1 22.4612 19.0707 40.5259
594 1 22.4612 18.1962 41.762
595 2 22.4612 25.9357 4.12639
596 1 22.4612 26.8516 3.8469
597 1 22.4612 25.977 5.08297
598 2 22.4612 25.9357 11.4622
599 1 22.4612 26.8516 11.1827
600 1 22.4612 25.977 12.4188
601 2 22.4612 25.9357 18.798
602 1 22.4612 26.8516 18.5185
603 1 22.4612 25.977 19.7546
604 2 22.4612 25.9357 26.1338
605 1 22.4612 26.8516 25.8543
606 1 22.4612 25.977 27.0904
607 2 22.4612 25.9357 33.4696
608 1 22.4612 26.8516 33.1902
609 1 22.4612 25.977 34.4262
610 2 22.4612 25.9357 40.8054
611 1 22.4612 26.8516 40.5259
612 1 22.4612 25.977 41.762
613 2 22.4612 33.7166 4.12639
614 1 22.4612 34.6323 3.8469
615 1 22.4612 33.7578 5.08297
616 2 22.4612 33.7166 11.4622
617 1 22.4612 34.6323 11.1827
618 1 22.4612 33.7578 12.4188
619 2 22.4612 33.7166 18.798
620 1 22.4612 34.6323 18.5185
621 1 22.4612 33.7578 19.7546
622 2 22.4612 33.7166 26.1338
623 1 22.4612 34.6323 25.8543
624 1 22.4612 33.7578 27.0904
625 2 22.4612 33.7166 33.4696
626 1 22.4612 34.6323 33.1902
627 1 22.4612 33.7578 34.4262
628 2 22.4612 33.7166 40.8054
629 1 22.4612 34.6323 40.5259
630 1 22.4612 33.7578 41.762
631 2 22.4612 41.4973 4.12639
632 1 22.4612 42.4131 3.8469
633 1 22.4612 41.5386 5.08297
634 2 22.4612 41.4973 11.4622
635 1 22.4612 42.4131 11.1827
636 1 22.4612 41.5386 12.4188
637 2 22.4612 41.4973 18.798
638 1 22.4612 42.4131 18.5185
639 1 22.4612 41.5386 19.7546
640 2 22.4612 41.4973 26.1338
641 1 22.4612 42.4131 25.8543
642 1 22.4612 41.5386 27.0904
643 2 22.4612 41.4973 33.4696
644 1 22.4612 42.4131 33.1902
645 1 22.4612 41.5386 34.4262
646 2 22.4612 41.4973 40.8054
647 1 22.4612 42.4131 40.5259
648 1 22.4612 41.5386 41.762
649 2 26.9535 2.59334 4.12639
650 1 26.9535 3.50916 3.8469
651 1 26.9535 2.63456 5.08297
652 2 26.9535 2.59334 11.4622
653 1 26.9535 3.50916 11.1827
654 1 26.9535 2.63456 12.4188
655 2 26.9535 2.59334 18.798
656 1 26.9535 3.50916 18.5185
657 1 26.9535 2.63456 19.7546
658 2 26.9535 2.59334 26.1338
659 1 26.9535 3.50916 25.8543
660 1 26.9535 2.63456 27.0904
661 2 26.9535 2.59334 33.4696
662 1 26.9535 3.50916 33.1902
663 1 26.9535 2.63456 34.4262
664 2 26.9535 2.59334 40.8054
665 1 26.9535 3.50916 40.5259
666 1 26.9535 2.63456 41.762
667 2 26.9535 10.3742 4.12639
668 1 26.9535 11.2899 3.8469
669 1 26.9535 10.4154 5.08297
670 2 26.9535 10.3742 11.4622
671 1 26.9535 11.2899 11.1827
672 1 26.9535 10.4154 12.4188
673 2 26.9535 10.3742 18.798
674 1 26.9535 11.2899 18.5185
675 1 26.9535 10.4154 19.7546
676 2 26.9535 10.3742 26.1338
677 1 26.9535 11.2899 25.8543
678 1 26.9535 10.4154 27.0904
679 2 26.9535 10.3742 33.4696
680 1 26.9535 11.2899 33.1902
681 1 26.9535 10.4154 34.4262
682 2 26.9535 10.3742 40.8054
683 1 26.9535 11.2899 40.5259
684 1 26.9535 10.4154 41.762
685 2 26.9535 18.1549 4.12639
686 1 26.9535 19.0707 3.8469
687 1 26.9535 18.1962 5.08297
688 2 26.9535 18.1549 11.4622
689 1 26.9535 19.0707 11.1827
690 1 26.9535 18.1962 12.4188
691 2 26.9535 18.1549 18.798
692 1 26.9535 19.0707 18.5185
693 1 26.9535 18.1962 19.7546
694 2 26.9535 18.1549 26.1338
695 1 26.9535 19.0707 25.8543
696 1 26.9535 18.1962 27.0904
697 2 26.9535 18.1549 33.4696
698 1 26.9535 19.0707 33.1902
699 1 26.9535 18.1962 34.4262
700 2 26.9535 18.1549 40.8054
701 1 26.9535 19.0707 40.5259
702 1 26.9535 18.1962 41.762
703 2 26.9535 25.9357 4.12639
704 1 26.9535 26.8516 3.8469
705 1 26.9535 25.977 5.08297
706 2 26.9535 25.9357 11.4622
707 1 26.9535 26.8516 11.1827
708 1 26.9535 25.977 12.4188
709 2 26.9535 25.9357 18.798
710 1 26.9535 26.8516 18.5185
711 1 26.9535 25.977 19.7546
712 2 26.9535 25.9357 26.1338
713 1 26.9535 26.8516 25.8543
714 1 26.9535 25.977 27.0904
715 2 26.9535 25.9357 33.4696
716 1 26.9535 26.8516 33.1902
717 1 26.9535 25.977 34.4262
718 2 26.9535 25.9357 40.8054
719 1 26.9535 26.8516 40.5259
720 1 26.9535 25.977 41.762
721 2 26.9535 33.7166 4.12639
722 1 26.9535 34.6323 3.8469
723 1 26.9535 33.7578 5.08297
724 2 26.9535 33.7166 11.4622
725 1 26.9535 34.6323 11.1827
726 1 26.9535 33.7578 12.4188
727 2 26.9535 33.7166 18.798
728 1 26.9535 34.6323 18.5185
729 1 26.9535 33.7578 19.7546
730 2 26.9535 33.7166 26.1338
731 1 26.9535 34.6323 25.8543
732 1 26.9535 33.7578 27.0904
733 2 26.9535 33.7166 33.4696
734 1 26.9535 34.6323 33.1902
735 1 26.9535 33.7578 34.4262
736 2 26.9535 33.7166 40.8054
737 1 26.9535 34.6323 40.5259
738 1 26.9535 33.7578 41.762
739 2 26.9535 41.4973 4.12639
740 1 26.9535 42.4131 3.8469
741 1 26.9535 41.5386 5.08297
742 2 26.9535 41.4973 11.4622
743 1 26.9535 42.4131 11.1827
744 1 26.9535 41.5386 12.4188
745 2 26.9535 41.4973 18.798
746 1 26.9535 42.4131 18.5185
747 1 26.9535 41.5386 19.7546
748 2 26.9535 41.4973 26.1338
749 1 26.9535 42.4131 25.8543
750 1 26.9535 41.5386 27.0904
751 2 26.9535 41.4973 33.4696
752 1 26.9535 42.4131 33.1902
753 1 26.9535 41.5386 34.4262
754 2 26.9535 41.4973 40.8054
755 1 26.9535 42.4131 40.5259
756 1 26.9535 41.5386 41.762
757 2 31.4457 2.59334 4.12639
758 1 31.4457 3.50916 3.8469
759 1 31.4457 2.63456 5.08297
760 2 31.4457 2.59334 11.4622
761 1 31.4457 3.50916 11.1827
762 1 31.4457 2.63456 12.4188
763 2 31.4457 2.59334 18.798
764 1 31.4457 3.50916 18.5185
765 1 31.4457 2.63456 19.7546
766 2 31.4457 2.59334 26.1338
767 1 31.4457 3.50916 25.8543
768 1 31.4457 2.63456 27.0904
769 2 31.4457 2.59334 33.4696
770 1 31.4457 3.50916 33.1902
771 1 31.4457 2.63456 34.4262
772 2 31.4457 2.59334 40.8054
773 1 31.4457 3.50916 40.5259
774 1 31.4457 2.63456 41.762
775 2 31.4457 10.3742 4.12639
776 1 31.4457 11.2899 3.8469
777 1 31.4457 10.4154 5.08297
778 2 31.4457 10.3742 11.4622
779 1 31.4457 11.2899 11.1827
780 1 31.4457 10.4154 12.4188
781 2 31.4457 10.3742 18.798
782 1 31.4457 11.2899 18.5185
783 1 31.4457 10.4154 19.7546
784 2 31.4457 10.3742 26.1338
785 1 31.4457 11.2899 25.8543
786 1 31.4457 10.4154 27.0904
787 2 31.4457 10.3742 33.4696
788 1 31.4457 11.2899 33.1902
789 1 31.4457 10.4154 34.4262
790 2 31.4457 10.3742 40.8054
791 1 31.4457 11.2899 40.5259
792 1 31.4457 10.4154 41.762
793 2 31.4457 18.1549 4.12639
794 1 31.4457 19.0707 3.8469
795 1 31.4457 18.1962 5.08297
796 2 31.4457 18.1549 11.4622
797 1 31.4457 19.0707 11.1827
798 1 31.4457 18.1962 12.4188
799 2 31.4457 18.1549 18.798
800 1 31.4457 19.0707 18.5185
801 1 31.4457 18.1962 19.7546
802 2 31.4457 18.1549 26.1338
803 1 31.4457 19.0707 25.8543
804 1 31.4457 18.1962 27.0904
805 2 31.4457 18.1549 33.4696
806 1 31.4457 19.0707 33.1902
807 1 31.4457 18.1962 34.4262
808 2 31.4457 18.1549 40.8054
809 1 31.4457 19.0707 40.5259
810 1 31.4457 18.1962 41.762
811 2 31.4457 25.9357 4.12639
812 1 31.4457 26.8516 3.8469
813 1 31.4457 25.977 5.08297
814 2 31.4457 25.9357 11.4622
815 1 31.4457 26.8516 11.1827
816 1 31.4457 25.977 12.4188
817 2 31.4457 25.9357 18.798
818 1 31.4457 26.8516 18.5185
819 1 31.4457 25.977 19.7546
820 2 31.4457 25.9357 26.1338
821 1 31.4457 26.8516 25.8543
822 1 31.4457 25.977 27.0904
823 2 31.4457 25.9357 33.4696
824 1 31.4457 26.8516 33.1902
825 1 31.4457 25.977 34.4262
826 2 31.4457 25.9357 40.8054
827 1 31.4457 26.8516 40.5259
828 1 31.4457 25.977 41.762
829 2 31.4457 33.7166 4.12639
830 1 31.4457 34.6323 3.8469
831 1 31.4457 33.7578 5.08297
832 2 31.4457 33.7166 11.4622
833 1 31.4457 34.6323 11.1827
834 1 31.4457 33.7578 12.4188
835 2 31.4457 33.7166 18.798
836 1 31.4457 34.6323 18.5185
837 1 31.4457 33.7578 19.7546
838 2 31.4457 33.7166 26.1338
839 1 31.4457 34.6323 25.8543
840 1 31.4457 33.7578 27.0904
841 2 31.4457 33.7166 33.4696
842 1 31.4457 34.6323 33.1902
843 1 31.4457 33.7578 34.4262
844 2 31.4457 33.7166 40.8054
845 1 31.4457 34.6323 40.5259
846 1 31.4457 33.7578 41.762
847 2 31.4457 41.4973 4.12639
848 1 31.4457 42.4131 3.8469
849 1 31.4457 41.5386 5.08297
850 2 31.4457 41.4973 11.4622
851 1 31.4457 42.4131 11.1827
852 1 31.4457 41.5386 12.4188
853 2 31.4457 41.4973 18.798
854 1 31.4457 42.4131 18.5185
855 1 31.4457 41.5386 19.7546
856 2 31.4457 41.4973 26.1338
857 1 31.4457 42.4131 25.8543
858 1 31.4457 41.5386 27.0904
859 2 31.4457 41.4973 33.4696
860 1 31.4457 42.4131 33.1902
861 1 31.4457 41.5386 34.4262
862 2 31.4457 41.4973 40.8054
863 1 31.4457 42.4131 40.5259
864 1 31.4457 41.5386 41.762
865 2 35.938 2.59334 4.12639
866 1 35.938 3.50916 3.8469
867 1 35.938 2.63456 5.08297
868 2 35.938 2.59334 11.4622
869 1 35.938 3.50916 11.1827
870 1 35.938 2.63456 12.4188
871 2 35.938 2.59334 18.798
872 1 35.938 3.50916 18.5185
873 1 35.938 2.63456 19.7546
874 2 35.938 2.59334 26.1338
875 1 35.938 3.50916 25.8543
876 1 35.938 2.63456 27.0904
877 2 35.938 2.59334 33.4696
878 1 35.938 3.50916 33.1902
879 1 35.938 2.63456 34.4262
880 2 35.938 2.59334 40.8054
881 1 35.938 3.50916 40.5259
882 1 35.938 2.63456 41.762
883 2 35.938 10.3742 4.12639
884 1 35.938 11.2899 3.8469
885 1 35.938 10.4154 5.08297
886 2 35.938 10.3742 11.4622
887 1 35.938 11.2899 11.1827
888 1 35.938 10.4154 12.4188
889 2 35.938 10.3742 18.798
890 1 35.938 11.2899 18.5185
891 1 35.938 10.4154 19.7546
892 2 35.938 10.3742 26.1338
893 1 35.938 11.2899 25.8543
894 1 35.938 10.4154 27.0904
895 2 35.938 10.3742 33.4696
896 1 35.938 11.2899 33.1902
897 1 35.938 10.4154 34.4262
898 2 35.938 10.3742 40.8054
899 1 35.938 11.2899 40.5259
900 1 35.938 10.4154 41.762
901 2 35.938 18.1549 4.12639
902 1 35.938 19.0707 3.8469
903 1 35.938 18.1962 5.08297
904 2 35.938 18.1549 11.4622
905 1 35.938 19.0707 11.1827
906 1 35.938 18.1962 12.4188
907 2 35.938 18.1549 18.798
908 1 35.938 19.0707 18.5185
909 1 35.938 18.1962 19.7546
910 2 35.938 18.1549 26.1338
911 1 35.938 19.0707 25.8543
912 1 35.938 18.1962 27.0904
913 2 35.938 18.1549 33.4696
914 1 35.938 19.0707 33.1902
915 1 35.938 18.1962 34.4262
916 2 35.938 18.1549 40.8054
917 1 35.938 19.0707 40.5259
918 1 35.938 18.1962 41.762
919 2 35.938 25.9357 4.12639
920 1 35.938 26.8516 3.8469
921 1 35.938 25.977 5.08297
922 2 35.938 25.9357 11.4622
923 1 35.938 26.8516 11.1827
924 1 35.938 25.977 12.4188
925 2 35.938 25.9357 18.798
926 1 35.938 26.8516 18.5185
927 1 35.938 25.977 19.7546
928 2 35.938 25.9357 26.1338
929 1 35.938 26.8516 25.8543
930 1 35.938 25.977 27.0904
931 2 35.938 25.9357 33.4696
932 1 35.938 26.8516 33.1902
933 1 35.938 25.977 34.4262
934 2 35.938 25.9357 40.8054
935 1 35.938 26.8516 40.5259
936 1 35.938 25.977 41.762
937 2 35.938 33.7166 4.12639
938 1 35.938 34.6323 3.8469
939 1 35.938 33.7578 5.08297
940 2 35.938 33.7166 11.4622
941 1 35.938 34.6323 11.1827
942 1 35.938 33.7578 12.4188
943 2 35.938 33.7166 18.798
944 1 35.938 34.6323 18.5185
945 1 35.938 33.7578 19.7546
946 2 35.938 33.7166 26.1338
947 1 35.938 34.6323 25.8543
948 1 35.938 33.7578 27.0904
949 2 35.938 33.7166 33.4696
950 1 35.938 34.6323 33.1902
951 1 35.938 33.7578 34.4262
952 2 35.938 33.7166 40.8054
953 1 35.938 34.6323 40.5259
954 1 35.938 33.7578 41.762
955 2 35.938 41.4973 4.12639
956 1 35.938 42.4131 3.8469
957 1 35.938 41.5386 5.08297
958 2 35.938 41.4973 11.4622
959 1 35.938 42.4131 11.1827
960 1 35.938 41.5386 12.4188
961 2 35.938 41.4973 18.798
962 1 35.938 42.4131 18.5185
963 1 35.938 41.5386 19.7546
964 2 35.938 41.4973 26.1338
965 1 35.938 42.4131 25.8543
966 1 35.938 41.5386 27.0904
967 2 35.938 41.4973 33.4696
968 1 35.938 42.4131 33.1902
969 1 35.938 41.5386 34.4262
970 2 35.938 41.4973 40.8054
971 1 35.938 42.4131 40.5259
972 1 35.938 41.5386 41.762
973 2 40.4302 2.59334 4.12639
974 1 40.4302 3.50916 3.8469
975 1 40.4302 2.63456 5.08297
976 2 40.4302 2.59334 11.4622
977 1 40.4302 3.50916 11.1827
978 1 40.4302 2.63456 12.4188
979 2 40.4302 2.59334 18.798
980 1 40.4302 3.50916 18.5185
981 1 40.4302 2.63456 19.7546
982 2 40.4302 2.59334 26.1338
983 1 40.4302 3.50916 25.8543
984 1 40.4302 2.63456 27.0904
985 2 40.4302 2.59334 33.4696
986 1 40.4302 3.50916 33.1902
987 1 40.4302 2.63456 34.4262
988 2 40.4302 2.59334 40.8054
989 1 40.4302 3.50916 40.5259
990 1 40.4302 2.63456 41.762
991 2 40.4302 10.3742 4.12639
992 1 40.4302 11.2899 3.8469
993 1 40.4302 10.4154 5.08297
994 2 40.4302 10.3742 11.4622
995 1 40.4302 11.2899 11.1827
996 1 40.4302 10.4154 12.4188
997 2 40.4302 10.3742 18.798
998 1 40.4302 11.2899 18.5185
999 1 40.4302 10.4154 19.7546
1000 2 40.4302 10.3742 26.1338
1001 1 40.4302 11.2899 25.8543
1002 1 40.4302 10.4154 27.0904
1003 2 40.4302 10.3742 33.4696
1004 1 40.4302 11.2899 33.1902
1005 1 40.4302 10.4154 34.4262
1006 2 40.4302 10.3742 40.8054
1007 1 40.4302 11.2899 40.5259
1008 1 40.4302 10.4154 41.762
1009 2 40.4302 18.1549 4.12639
1010 1 40.4302 19.0707 3.8469
1011 1 40.4302 18.1962 5.08297
1012 2 40.4302 18.1549 11.4622
1013 1 40.4302 19.0707 11.1827
1014 1 40.4302 18.1962 12.4188
1015 2 40.4302 18.1549 18.798
1016 1 40.4302 19.0707 18.5185
1017 1 40.4302 18.1962 19.7546
1018 2 40.4302 18.1549 26.1338
1019 1 40.4302 19.0707 25.8543
1020 1 40.4302 18.1962 27.0904
1021 2 40.4302 18.1549 33.4696
1022 1 40.4302 19.0707 33.1902
1023 1 40.4302 18.1962 34.4262
1024 2 40.4302 18.1549 40.8054
1025 1 40.4302 19.0707 40.5259
1026 1 40.4302 18.1962 41.762
1027 2 40.4302 25.9357 4.12639
1028 1 40.4302 26.8516 3.8469
1029 1 40.4302 25.977 5.08297
1030 2 40.4302 25.9357 11.4622
1031 1 40.4302 26.8516 11.1827
1032 1 40.4302 25.977 12.4188
1033 2 40.4302 25.9357 18.798
1034 1 40.4302 26.8516 18.5185