ITEM: TIMESTEP
0
ITEM: NUMBER OF ATOMS
36000
ITEM: BOX BOUNDS xy xz yz pp pp pp
-5.9796001000000004e+01 5.4264000000000003e+01 -3.8020000000000003e+01
-6.6313500000000003e-01 6.5189437999999996e+01 0.0000000000000000e+00
-5.2500999999999999e-02 7.1377499000000000e+01 0.0000000000000000e+00
ITEM: ATOMS id type x y z
1 1 -0.347 2.214 3.42
2 1 -1.258 2.178 1.403
3 1 -1.72 2.979 0.076
4 2 -1.242 2.151 0.398
5 2 -1.29 2.235 3.068
6 1 5.512 0.806 6.992
7 1 2.058 5.177 3.42
8 1 4.149 4.37 6.992
9 1 -1.71 5.779 3.42
10 1 1.744 1.408 6.992
11 1 2.091 0.806 3.42
12 1 0.347 2.214 6.992
13 1 5.86 1.408 3.42
14 1 1.71 5.779 6.992
15 1 3.454 4.37 3.42
16 1 -2.058 5.177 6.992
17 1 5.088 0 4.975
18 1 2.544 4.406 1.403
19 1 -2.544 4.406 4.975
20 1 2.515 0 1.403
21 1 1.258 2.178 4.975
22 1 4.164 0 3.648
23 1 2.082 3.606 0.076
24 1 -2.082 3.606 3.648
25 1 3.439 0 0.076
26 1 1.72 2.979 3.648
27 2 5.12 0 3.969
28 2 2.56 4.434 0.398
29 2 -2.56 4.434 3.969
30 2 2.484 0 0.398
31 2 1.242 2.151 3.969
32 2 5.023 0 6.64
33 2 2.511 4.35 3.068
34 2 -2.511 4.35 6.64
35 2 2.581 0 3.068
36 2 1.29 2.235 6.64
37 1 -0.347 2.214 10.563
38 1 -1.258 2.178 8.546
39 1 -1.72 2.979 7.219
40 2 -1.242 2.151 7.541
41 2 -1.29 2.235 10.211
42 1 5.512 0.806 14.135
43 1 2.058 5.177 10.563
44 1 4.149 4.37 14.135
45 1 -1.71 5.779 10.563
46 1 1.744 1.408 14.135
47 1 2.091 0.806 10.563
48 1 0.347 2.214 14.135
49 1 5.86 1.408 10.563
50 1 1.71 5.779 14.135
51 1 3.454 4.37 10.563
52 1 -2.058 5.177 14.135
53 1 5.088 0 12.118
54 1 2.544 4.406 8.546
55 1 -2.544 4.406 12.118
56 1 2.515 0 8.546
57 1 1.258 2.178 12.118
58 1 4.164 0 10.791
59 1 2.082 3.606 7.219
60 1 -2.082 3.606 10.791
61 1 3.439 0 7.219
62 1 1.72 2.979 10.791
63 2 5.12 0 11.112
64 2 2.56 4.434 7.541
65 2 -2.56 4.434 11.112
66 2 2.484 0 7.541
67 2 1.242 2.151 11.112
68 2 5.023 0 13.783
69 2 2.511 4.35 10.211
70 2 -2.511 4.35 13.783
71 2 2.581 0 10.211
72 2 1.29 2.235 13.783
73 1 -0.347 2.214 17.706
74 1 -1.258 2.178 15.689
75 1 -1.72 2.979 14.362
76 2 -1.242 2.151 14.684
77 2 -1.29 2.235 17.354
78 1 5.512 0.806 21.278
79 1 2.058 5.177 17.706
80 1 4.149 4.37 21.278
81 1 -1.71 5.779 17.706
82 1 1.744 1.408 21.278
83 1 2.091 0.806 17.706
84 1 0.347 2.214 21.278
85 1 5.86 1.408 17.706
86 1 1.71 5.779 21.278
87 1 3.454 4.37 17.706
88 1 -2.058 5.177 21.278
89 1 5.088 0 19.261
90 1 2.544 4.406 15.689
91 1 -2.544 4.406 19.261
92 1 2.515 0 15.689
93 1 1.258 2.178 19.261
94 1 4.164 0 17.934
95 1 2.082 3.606 14.362
96 1 -2.082 3.606 17.934
97 1 3.439 0 14.362
98 1 1.72 2.979 17.934
99 2 5.12 0 18.255
100 2 2.56 4.434 14.684
101 2 -2.56 4.434 18.255
102 2 2.484 0 14.684
103 2 1.242 2.151 18.255
104 2 5.023 0 20.926
105 2 2.511 4.35 17.354
106 2 -2.511 4.35 20.926
107 2 2.581 0 17.354
108 2 1.29 2.235 20.926
109 1 -0.347 2.214 24.849
110 1 -1.258 2.178 22.832
111 1 -1.72 2.979 21.505
112 2 -1.242 2.151 21.827
113 2 -1.29 2.235 24.497
114 1 5.512 0.806 28.421
115 1 2.058 5.177 24.849
116 1 4.149 4.37 28.421
117 1 -1.71 5.779 24.849
118 1 1.744 1.408 28.421
119 1 2.091 0.806 24.849
120 1 0.347 2.214 28.421
121 1 5.86 1.408 24.849
122 1 1.71 5.779 28.421
123 1 3.454 4.37 24.849
124 1 -2.058 5.177 28.421
125 1 5.088 0 26.404
126 1 2.544 4.406 22.832
127 1 -2.544 4.406 26.404
128 1 2.515 0 22.832
129 1 1.258 2.178 26.404
130 1 4.164 0 25.077
131 1 2.082 3.606 21.505
132 1 -2.082 3.606 25.077
133 1 3.439 0 21.505
134 1 1.72 2.979 25.077
135 2 5.12 0 25.398
136 2 2.56 4.434 21.827
137 2 -2.56 4.434 25.398
138 2 2.484 0 21.827
139 2 1.242 2.151 25.398
140 2 5.023 0 28.069
141 2 2.511 4.35 24.497
142 2 -2.511 4.35 28.069
143 2 2.581 0 24.497
144 2 1.29 2.235 28.069
145 1 -0.347 2.214 31.992
146 1 -1.258 2.178 29.975
147 1 -1.72 2.979 28.648
148 2 -1.242 2.151 28.97
149 2 -1.29 2.235 31.64
150 1 5.512 0.806 35.564
151 1 2.058 5.177 31.992
152 1 4.149 4.37 35.564
153 1 -1.71 5.779 31.992
154 1 1.744 1.408 35.564
155 1 2.091 0.806 31.992
156 1 0.347 2.214 35.564
157 1 5.86 1.408 31.992
158 1 1.71 5.779 35.564
159 1 3.454 4.37 31.992
160 1 -2.058 5.177 35.564
161 1 5.088 0 33.547
162 1 2.544 4.406 29.975
163 1 -2.544 4.406 33.547
164 1 2.515 0 29.975
165 1 1.258 2.178 33.547
166 1 4.164 0 32.22
167 1 2.082 3.606 28.648
168 1 -2.082 3.606 32.22
169 1 3.439 0 28.648
170 1 1.72 2.979 32.22
171 2 5.12 0 32.541
172 2 2.56 4.434 28.97
173 2 -2.56 4.434 32.541
174 2 2.484 0 28.97
175 2 1.242 2.151 32.541
176 2 5.023 0 35.212
177 2 2.511 4.35 31.64
178 2 -2.511 4.35 35.212
179 2 2.581 0 31.64
180 2 1.29 2.235 35.212
181 1 -0.347 2.214 39.135
182 1 -1.258 2.178 37.118
183 1 -1.72 2.979 35.791
184 2 -1.242 2.151 36.113
185 2 -1.29 2.235 38.783
186 1 5.512 0.806 42.707
187 1 2.058 5.177 39.135
188 1 4.149 4.37 42.707
189 1 -1.71 5.779 39.135
190 1 1.744 1.408 42.707
191 1 2.091 0.806 39.135
192 1 0.347 2.214 42.707
193 1 5.86 1.408 39.135
194 1 1.71 5.779 42.707
195 1 3.454 4.37 39.135
196 1 -2.058 5.177 42.707
197 1 5.088 0 40.69
198 1 2.544 4.406 37.118
199 1 -2.544 4.406 40.69
200 1 2.515 0 37.118
201 1 1.258 2.178 40.69
202 1 4.164 0 39.363
203 1 2.082 3.606 35.791
204 1 -2.082 3.606 39.363
205 1 3.439 0 35.791
206 1 1.72 2.979 39.363
207 2 5.12 0 39.684
208 2 2.56 4.434 36.113
209 2 -2.56 4.434 39.684
210 2 2.484 0 36.113
211 2 1.242 2.151 39.684
212 2 5.023 0 42.355
213 2 2.511 4.35 38.783
214 2 -2.511 4.35 42.355
215 2 2.581 0 38.783
216 2 1.29 2.235 42.355
217 1 -0.347 2.214 46.278
218 1 -1.258 2.178 44.261
219 1 -1.72 2.979 42.934
220 2 -1.242 2.151 43.256
221 2 -1.29 2.235 45.926
222 1 5.512 0.806 49.85
223 1 2.058 5.177 46.278
224 1 4.149 4.37 49.85
225 1 -1.71 5.779 46.278
226 1 1.744 1.408 49.85
227 1 2.091 0.806 46.278
228 1 0.347 2.214 49.85
229 1 5.86 1.408 46.278
230 1 1.71 5.779 49.85
231 1 3.454 4.37 46.278
232 1 -2.058 5.177 49.85
233 1 5.088 0 47.833
234 1 2.544 4.406 44.261
235 1 -2.544 4.406 47.833
236 1 2.515 0 44.261
237 1 1.258 2.178 47.833
238 1 4.164 0 46.506
239 1 2.082 3.606 42.934
240 1 -2.082 3.606 46.506
241 1 3.439 0 42.934
242 1 1.72 2.979 46.506
243 2 5.12 0 46.827
244 2 2.56 4.434 43.256
245 2 -2.56 4.434 46.827
246 2 2.484 0 43.256
247 2 1.242 2.151 46.827
248 2 5.023 0 49.498
249 2 2.511 4.35 45.926
250 2 -2.511 4.35 49.498
251 2 2.581 0 45.926
252 2 1.29 2.235 49.498
253 1 -0.347 2.214 53.421
254 1 -1.258 2.178 51.404
255 1 -1.72 2.979 50.077
256 2 -1.242 2.151 50.399
257 2 -1.29 2.235 53.069
258 1 5.512 0.806 56.993
259 1 2.058 5.177 53.421
260 1 4.149 4.37 56.993
261 1 -1.71 5.779 53.421
262 1 1.744 1.408 56.993
263 1 2.091 0.806 53.421
264 1 0.347 2.214 56.993
265 1 5.86 1.408 53.421
266 1 1.71 5.779 56.993
267 1 3.454 4.37 53.421
268 1 -2.058 5.177 56.993
269 1 5.088 0 54.976
270 1 2.544 4.406 51.404
271 1 -2.544 4.406 54.976
272 1 2.515 0 51.404
273 1 1.258 2.178 54.976
274 1 4.164 0 53.649
275 1 2.082 3.606 50.077
276 1 -2.082 3.606 53.649
277 1 3.439 0 50.077
278 1 1.72 2.979 53.649
279 2 5.12 0 53.97
280 2 2.56 4.434 50.399
281 2 -2.56 4.434 53.97
282 2 2.484 0 50.399
283 2 1.242 2.151 53.97
284 2 5.023 0 56.641
285 2 2.511 4.35 53.069
286 2 -2.511 4.35 56.641
287 2 2.581 0 53.069
288 2 1.29 2.235 56.641
289 1 -0.347 2.214 60.564
290 1 -1.258 2.178 58.547
291 1 -1.72 2.979 57.22
292 2 -1.242 2.151 57.542
293 2 -1.29 2.235 60.212
294 1 5.512 0.806 64.136
295 1 2.058 5.177 60.564
296 1 4.149 4.37 64.136
297 1 -1.71 5.779 60.564
298 1 1.744 1.408 64.136
299 1 2.091 0.806 60.564
300 1 0.347 2.214 64.136
301 1 5.86 1.408 60.564
302 1 1.71 5.779 64.136
303 1 3.454 4.37 60.564
304 1 -2.058 5.177 64.136
305 1 5.088 0 62.119
306 1 2.544 4.406 58.547
307 1 -2.544 4.406 62.119
308 1 2.515 0 58.547
309 1 1.258 2.178 62.119
310 1 4.164 0 60.792
311 1 2.082 3.606 57.22
312 1 -2.082 3.606 60.792
313 1 3.439 0 57.22
314 1 1.72 2.979 60.792
315 2 5.12 0 61.113
316 2 2.56 4.434 57.542
317 2 -2.56 4.434 61.113
318 2 2.484 0 57.542
319 2 1.242 2.151 61.113
320 2 5.023 0 63.784
321 2 2.511 4.35 60.212
322 2 -2.511 4.35 63.784
323 2 2.581 0 60.212
324 2 1.29 2.235 63.784
325 1 -0.347 2.214 67.707
326 1 -1.258 2.178 65.69
327 1 -1.72 2.979 64.363
328 2 -1.242 2.151 64.685
329 2 -1.29 2.235 67.355
330 1 5.512 0.806 71.279
331 1 2.058 5.177 67.707
332 1 4.149 4.37 71.279
333 1 -1.71 5.779 67.707
334 1 1.744 1.408 71.279
335 1 2.091 0.806 67.707
336 1 0.347 2.214 71.279
337 1 5.86 1.408 67.707
338 1 1.71 5.779 71.279
339 1 3.454 4.37 67.707
340 1 -2.058 5.177 71.279
341 1 5.088 0 69.262
342 1 2.544 4.406 65.69
343 1 -2.544 4.406 69.262
344 1 2.515 0 65.69
345 1 1.258 2.178 69.262
346 1 4.164 0 67.935
347 1 2.082 3.606 64.363
348 1 -2.082 3.606 67.935
349 1 3.439 0 64.363
350 1 1.72 2.979 67.935
351 2 5.12 0 68.256
352 2 2.56 4.434 64.685
353 2 -2.56 4.434 68.256
354 2 2.484 0 64.685
355 2 1.242 2.151 68.256
356 2 5.023 0 70.927
357 2 2.511 4.35 67.355
358 2 -2.511 4.35 70.927
359 2 2.581 0 67.355
360 2 1.29 2.235 70.927
361 1 -4.149 8.79926 3.42
362 1 -5.06 8.76326 1.403
363 1 -5.522 9.56426 0.076
364 2 -5.044 8.73626 0.398
365 2 -5.092 8.82026 3.068
366 1 1.71 7.39126 6.992
367 1 -1.744 11.7623 3.42
368 1 0.347 10.9553 6.992
369 1 -5.512 12.3643 3.42
370 1 -2.058 7.99326 6.992
371 1 -1.711 7.39126 3.42
372 1 -3.455 8.79926 6.992
373 1 2.058 7.99326 3.42
374 1 -2.092 12.3643 6.992
375 1 -0.348 10.9553 3.42
376 1 -5.86 11.7623 6.992
377 1 1.286 6.58526 4.975
378 1 -1.258 10.9913 1.403
379 1 -6.346 10.9913 4.975
380 1 -1.287 6.58526 1.403
381 1 -2.544 8.76326 4.975
382 1 0.362 6.58526 3.648
383 1 -1.72 10.1913 0.076
384 1 -5.884 10.1913 3.648
385 1 -0.363 6.58526 0.076
386 1 -2.082 9.56426 3.648
387 2 1.318 6.58526 3.969
388 2 -1.242 11.0193 0.398
389 2 -6.362 11.0193 3.969
390 2 -1.318 6.58526 0.398
391 2 -2.56 8.73626 3.969
392 2 1.221 6.58526 6.64
393 2 -1.291 10.9353 3.068
394 2 -6.313 10.9353 6.64
395 2 -1.221 6.58526 3.068
396 2 -2.512 8.82026 6.64
397 1 -4.149 8.79926 10.563
398 1 -5.06 8.76326 8.546
399 1 -5.522 9.56426 7.219
400 2 -5.044 8.73626 7.541
401 2 -5.092 8.82026 10.211
402 1 1.71 7.39126 14.135
403 1 -1.744 11.7623 10.563
404 1 0.347 10.9553 14.135
405 1 -5.512 12.3643 10.563
406 1 -2.058 7.99326 14.135
407 1 -1.711 7.39126 10.563
408 1 -3.455 8.79926 14.135
409 1 2.058 7.99326 10.563
410 1 -2.092 12.3643 14.135
411 1 -0.348 10.9553 10.563
412 1 -5.86 11.7623 14.135
413 1 1.286 6.58526 12.118
414 1 -1.258 10.9913 8.546
415 1 -6.346 10.9913 12.118
416 1 -1.287 6.58526 8.546
417 1 -2.544 8.76326 12.118
418 1 0.362 6.58526 10.791
419 1 -1.72 10.1913 7.219
420 1 -5.884 10.1913 10.791
421 1 -0.363 6.58526 7.219
422 1 -2.082 9.56426 10.791
423 2 1.318 6.58526 11.112
424 2 -1.242 11.0193 7.541
425 2 -6.362 11.0193 11.112
426 2 -1.318 6.58526 7.541
427 2 -2.56 8.73626 11.112
428 2 1.221 6.58526 13.783
429 2 -1.291 10.9353 10.211
430 2 -6.313 10.9353 13.783
431 2 -1.221 6.58526 10.211
432 2 -2.512 8.82026 13.783
433 1 -4.149 8.79926 17.706
434 1 -5.06 8.76326 15.689
435 1 -5.522 9.56426 14.362
436 2 -5.044 8.73626 14.684
437 2 -5.092 8.82026 17.354
438 1 1.71 7.39126 21.278
439 1 -1.744 11.7623 17.706
440 1 0.347 10.9553 21.278
441 1 -5.512 12.3643 17.706
442 1 -2.058 7.99326 21.278
443 1 -1.711 7.39126 17.706
444 1 -3.455 8.79926 21.278
445 1 2.058 7.99326 17.706
446 1 -2.092 12.3643 21.278
447 1 -0.348 10.9553 17.706
448 1 -5.86 11.7623 21.278
449 1 1.286 6.58526 19.261
450 1 -1.258 10.9913 15.689
451 1 -6.346 10.9913 19.261
452 1 -1.287 6.58526 15.689
453 1 -2.544 8.76326 19.261
454 1 0.362 6.58526 17.934
455 1 -1.72 10.1913 14.362
456 1 -5.884 10.1913 17.934
457 1 -0.363 6.58526 14.362
458 1 -2.082 9.56426 17.934
459 2 1.318 6.58526 18.255
460 2 -1.242 11.0193 14.684
461 2 -6.362 11.0193 18.255
462 2 -1.318 6.58526 14.684
463 2 -2.56 8.73626 18.255
464 2 1.221 6.58526 20.926
465 2 -1.291 10.9353 17.354
466 2 -6.313 10.9353 20.926
467 2 -1.221 6.58526 17.354
468 2 -2.512 8.82026 20.926
469 1 -4.149 8.79926 24.849
470 1 -5.06 8.76326 22.832
471 1 -5.522 9.56426 21.505
472 2 -5.044 8.73626 21.827
473 2 -5.092 8.82026 24.497
474 1 1.71 7.39126 28.421
475 1 -1.744 11.7623 24.849
476 1 0.347 10.9553 28.421
477 1 -5.512 12.3643 24.849
478 1 -2.058 7.99326 28.421
479 1 -1.711 7.39126 24.849
480 1 -3.455 8.79926 28.421
481 1 2.058 7.99326 24.849
482 1 -2.092 12.3643 28.421
483 1 -0.348 10.9553 24.849
484 1 -5.86 11.7623 28.421
485 1 1.286 6.58526 26.404
486 1 -1.258 10.9913 22.832
487 1 -6.346 10.9913 26.404
488 1 -1.287 6.58526 22.832
489 1 -2.544 8.76326 26.404
490 1 0.362 6.58526 25.077
491 1 -1.72 10.1913 21.505
492 1 -5.884 10.1913 25.077
493 1 -0.363 6.58526 21.505
494 1 -2.082 9.56426 25.077
495 2 1.318 6.58526 25.398
496 2 -1.242 11.0193 21.827
497 2 -6.362 11.0193 25.398
498 2 -1.318 6.58526 21.827
499 2 -2.56 8.73626 25.398
500 2 1.221 6.58526 28.069
501 2 -1.291 10.9353 24.497
502 2 -6.313 10.9353 28.069
503 2 -1.221 6.58526 24.497
504 2 -2.512 8.82026 28.069
505 1 -4.149 8.79926 31.992
506 1 -5.06 8.76326 29.975
507 1 -5.522 9.56426 28.648
508 2 -5.044 8.73626 28.97
509 2 -5.092 8.82026 31.64
510 1 1.71 7.39126 35.564
511 1 -1.744 11.7623 31.992
512 1 0.347 10.9553 35.564
513 1 -5.512 12.3643 31.992
514 1 -2.058 7.99326 35.564
515 1 -1.711 7.39126 31.992
516 1 -3.455 8.79926 35.564
517 1 2.058 7.99326 31.992
518 1 -2.092 12.3643 35.564
519 1 -0.348 10.9553 31.992
520 1 -5.86 11.7623 35.564
521 1 1.286 6.58526 33.547
522 1 -1.258 10.9913 29.975
523 1 -6.346 10.9913 33.547
524 1 -1.287 6.58526 29.975
525 1 -2.544 8.76326 33.547
526 1 0.362 6.58526 32.22
527 1 -1.72 10.1913 28.648
528 1 -5.884 10.1913 32.22
529 1 -0.363 6.58526 28.648
530 1 -2.082 9.56426 32.22
531 2 1.318 6.58526 32.541
532 2 -1.242 11.0193 28.97
533 2 -6.362 11.0193 32.541
534 2 -1.318 6.58526 28.97
535 2 -2.56 8.73626 32.541
536 2 1.221 6.58526 35.212
537 2 -1.291 10.9353 31.64
538 2 -6.313 10.9353 35.212
539 2 -1.221 6.58526 31.64
540 2 -2.512 8.82026 35.212
541 1 -4.149 8.79926 39.135
542 1 -5.06 8.76326 37.118
543 1 -5.522 9.56426 35.791
544 2 -5.044 8.73626 36.113
545 2 -5.092 8.82026 38.783
546 1 1.71 7.39126 42.707
547 1 -1.744 11.7623 39.135
548 1 0.347 10.9553 42.707
549 1 -5.512 12.3643 39.135
550 1 -2.058 7.99326 42.707
551 1 -1.711 7.39126 39.135
552 1 -3.455 8.79926 42.707
553 1 2.058 7.99326 39.135
554 1 -2.092 12.3643 42.707
555 1 -0.348 10.9553 39.135
556 1 -5.86 11.7623 42.707
557 1 1.286 6.58526 40.69
558 1 -1.258 10.9913 37.118
559 1 -6.346 10.9913 40.69
560 1 -1.287 6.58526 37.118
561 1 -2.544 8.76326 40.69
562 1 0.362 6.58526 39.363
563 1 -1.72 10.1913 35.791
564 1 -5.884 10.1913 39.363
565 1 -0.363 6.58526 35.791
566 1 -2.082 9.56426 39.363
567 2 1.318 6.58526 39.684
568 2 -1.242 11.0193 36.113
569 2 -6.362 11.0193 39.684
570 2 -1.318 6.58526 36.113
571 2 -2.56 8.73626 39.684
572 2 1.221 6.58526 42.355
573 2 -1.291 10.9353 38.783
574 2 -6.313 10.9353 42.355
575 2 -1.221 6.58526 38.783
576 2 -2.512 8.82026 42.355
577 1 -4.149 8.79926 46.278
578 1 -5.06 8.76326 44.261
579 1 -5.522 9.56426 42.934
580 2 -5.044 8.73626 43.256
581 2 -5.092 8.82026 45.926
582 1 1.71 7.39126 49.85
583 1 -1.744 11.7623 46.278
584 1 0.347 10.9553 49.85
585 1 -5.512 12.3643 46.278
586 1 -2.058 7.99326 49.85
587 1 -1.711 7.39126 46.278
588 1 -3.455 8.79926 49.85
589 1 2.058 7.99326 46.278
590 1 -2.092 12.3643 49.85
591 1 -0.348 10.9553 46.278
592 1 -5.86 11.7623 49.85
593 1 1.286 6.58526 47.833
594 1 -1.258 10.9913 44.261
595 1 -6.346 10.9913 47.833
596 1 -1.287 6.58526 44.261
597 1 -2.544 8.76326 47.833
598 1 0.362 6.58526 46.506
599 1 -1.72 10.1913 42.934
600 1 -5.884 10.1913 46.506
601 1 -0.363 6.58526 42.934
602 1 -2.082 9.56426 46.506
603 2 1.318 6.58526 46.827
604 2 -1.242 11.0193 43.256
605 2 -6.362 11.0193 46.827
606 2 -1.318 6.58526 43.256
607 2 -2.56 8.73626 46.827
608 2 1.221 6.58526 49.498
609 2 -1.291 10.9353 45.926
610 2 -6.313 10.9353 49.498
611 2 -1.221 6.58526 45.926
612 2 -2.512 8.82026 49.498
613 1 -4.149 8.79926 53.421
614 1 -5.06 8.76326 51.404
615 1 -5.522 9.56426 50.077
616 2 -5.044 8.73626 50.399
617 2 -5.092 8.82026 53.069
618 1 1.71 7.39126 56.993
619 1 -1.744 11.7623 53.421
620 1 0.347 10.9553 56.993
621 1 -5.512 12.3643 53.421
622 1 -2.058 7.99326 56.993
623 1 -1.711 7.39126 53.421
624 1 -3.455 8.79926 56.993
625 1 2.058 7.99326 53.421
626 1 -2.092 12.3643 56.993
627 1 -0.348 10.9553 53.421
628 1 -5.86 11.7623 56.993
629 1 1.286 6.58526 54.976
630 1 -1.258 10.9913 51.404
631 1 -6.346 10.9913 54.976
632 1 -1.287 6.58526 51.404
633 1 -2.544 8.76326 54.976
634 1 0.362 6.58526 53.649
635 1 -1.72 10.1913 50.077
636 1 -5.884 10.1913 53.649
637 1 -0.363 6.58526 50.077
638 1 -2.082 9.56426 53.649
639 2 1.318 6.58526 53.97
640 2 -1.242 11.0193 50.399
641 2 -6.362 11.0193 53.97
642 2 -1.318 6.58526 50.399
643 2 -2.56 8.73626 53.97
644 2 1.221 6.58526 56.641
645 2 -1.291 10.9353 53.069
646 2 -6.313 10.9353 56.641
647 2 -1.221 6.58526 53.069
648 2 -2.512 8.82026 56.641
649 1 -4.149 8.79926 60.564
650 1 -5.06 8.76326 58.547
651 1 -5.522 9.56426 57.22
652 2 -5.044 8.73626 57.542
653 2 -5.092 8.82026 60.212
654 1 1.71 7.39126 64.136
655 1 -1.744 11.7623 60.564
656 1 0.347 10.9553 64.136
657 1 -5.512 12.3643 60.564
658 1 -2.058 7.99326 64.136
659 1 -1.711 7.39126 60.564
660 1 -3.455 8.79926 64.136
661 1 2.058 7.99326 60.564
662 1 -2.092 12.3643 64.136
663 1 -0.348 10.9553 60.564
664 1 -5.86 11.7623 64.136
665 1 1.286 6.58526 62.119
666 1 -1.258 10.9913 58.547
667 1 -6.346 10.9913 62.119
668 1 -1.287 6.58526 58.547
669 1 -2.544 8.76326 62.119
670 1 0.362 6.58526 60.792
671 1 -1.72 10.1913 57.22
672 1 -5.884 10.1913 60.792
673 1 -0.363 6.58526 57.22
674 1 -2.082 9.56426 60.792
675 2 1.318 6.58526 61.113
676 2 -1.242 11.0193 57.542
677 2 -6.362 11.0193 61.113
678 2 -1.318 6.58526 57.542
679 2 -2.56 8.73626 61.113
680 2 1.221 6.58526 63.784
681 2 -1.291 10.9353 60.212
682 2 -6.313 10.9353 63.784
683 2 -1.221 6.58526 60.212
684 2 -2.512 8.82026 63.784
685 1 -4.149 8.79926 67.707
686 1 -5.06 8.76326 65.69
687 1 -5.522 9.56426 64.363
688 2 -5.044 8.73626 64.685
689 2 -5.092 8.82026 67.355
690 1 1.71 7.39126 71.279
691 1 -1.744 11.7623 67.707
692 1 0.347 10.9553 71.279
693 1 -5.512 12.3643 67.707
694 1 -2.058 7.99326 71.279
695 1 -1.711 7.39126 67.707
696 1 -3.455 8.79926 71.279
697 1 2.058 7.99326 67.707
698 1 -2.092 12.3643 71.279
699 1 -0.348 10.9553 67.707
700 1 -5.86 11.7623 71.279
701 1 1.286 6.58526 69.262
702 1 -1.258 10.9913 65.69
703 1 -6.346 10.9913 69.262
704 1 -1.287 6.58526 65.69
705 1 -2.544 8.76326 69.262
706 1 0.362 6.58526 67.935
707 1 -1.72 10.1913 64.363
708 1 -5.884 10.1913 67.935
709 1 -0.363 6.58526 64.363
710 1 -2.082 9.56426 67.935
711 2 1.318 6.58526 68.256
712 2 -1.242 11.0193 64.685
713 2 -6.362 11.0193 68.256
714 2 -1.318 6.58526 64.685
715 2 -2.56 8.73626 68.256
716 2 1.221 6.58526 70.927
717 2 -1.291 10.9353 67.355
718 2 -6.313 10.9353 70.927
719 2 -1.221 6.58526 67.355
720 2 -2.512 8.82026 70.927
721 1 -7.951 15.3845 3.42
722 1 -8.862 15.3485 1.403
723 1 -9.324 16.1495 0.076
724 2 -8.846 15.3215 0.398
725 2 -8.894 15.4055 3.068
726 1 -2.092 13.9765 6.992
727 1 -5.546 18.3475 3.42
728 1 -3.455 17.5405 6.992
729 1 -9.314 18.9495 3.42
730 1 -5.86 14.5785 6.992
731 1 -5.513 13.9765 3.42
732 1 -7.257 15.3845 6.992
733 1 -1.744 14.5785 3.42
734 1 -5.894 18.9495 6.992
735 1 -4.15 17.5405 3.42
736 1 -9.662 18.3475 6.992
737 1 -2.516 13.1705 4.975
738 1 -5.06 17.5765 1.403
739 1 -10.148 17.5765 4.975
740 1 -5.089 13.1705 1.403
741 1 -6.346 15.3485 4.975
742 1 -3.44 13.1705 3.648
743 1 -5.522 16.7765 0.076
744 1 -9.686 16.7765 3.648
745 1 -4.165 13.1705 0.076
746 1 -5.884 16.1495 3.648
747 2 -2.484 13.1705 3.969
748 2 -5.044 17.6045 0.398
749 2 -10.164 17.6045 3.969
750 2 -5.12 13.1705 0.398
751 2 -6.362 15.3215 3.969
752 2 -2.581 13.1705 6.64
753 2 -5.093 17.5205 3.068
754 2 -10.115 17.5205 6.64
755 2 -5.023 13.1705 3.068
756 2 -6.314 15.4055 6.64
757 1 -7.951 15.3845 10.563
758 1 -8.862 15.3485 8.546
759 1 -9.324 16.1495 7.219
760 2 -8.846 15.3215 7.541
761 2 -8.894 15.4055 10.211
762 1 -2.092 13.9765 14.135
763 1 -5.546 18.3475 10.563
764 1 -3.455 17.5405 14.135
765 1 -9.314 18.9495 10.563
766 1 -5.86 14.5785 14.135
767 1 -5.513 13.9765 10.563
768 1 -7.257 15.3845 14.135
769 1 -1.744 14.5785 10.563
770 1 -5.894 18.9495 14.135
771 1 -4.15 17.5405 10.563
772 1 -9.662 18.3475 14.135
773 1 -2.516 13.1705 12.118
774 1 -5.06 17.5765 8.546
775 1 -10.148 17.5765 12.118
776 1 -5.089 13.1705 8.546
777 1 -6.346 15.3485 12.118
778 1 -3.44 13.1705 10.791
779 1 -5.522 16.7765 7.219
780 1 -9.686 16.7765 10.791
781 1 -4.165 13.1705 7.219
782 1 -5.884 16.1495 10.791
783 2 -2.484 13.1705 11.112
784 2 -5.044 17.6045 7.541
785 2 -10.164 17.6045 11.112
786 2 -5.12 13.1705 7.541
787 2 -6.362 15.3215 11.112
788 2 -2.581 13.1705 13.783
789 2 -5.093 17.5205 10.211
790 2 -10.115 17.5205 13.783
791 2 -5.023 13.1705 10.211
792 2 -6.314 15.4055 13.783
793 1 -7.951 15.3845 17.706
794 1 -8.862 15.3485 15.689
795 1 -9.324 16.1495 14.362
796 2 -8.846 15.3215 14.684
797 2 -8.894 15.4055 17.354
798 1 -2.092 13.9765 21.278
799 1 -5.546 18.3475 17.706
800 1 -3.455 17.5405 21.278
801 1 -9.314 18.9495 17.706
802 1 -5.86 14.5785 21.278
803 1 -5.513 13.9765 17.706
804 1 -7.257 15.3845 21.278
805 1 -1.744 14.5785 17.706
806 1 -5.894 18.9495 21.278
807 1 -4.15 17.5405 17.706
808 1 -9.662 18.3475 21.278
809 1 -2.516 13.1705 19.261
810 1 -5.06 17.5765 15.689
811 1 -10.148 17.5765 19.261
812 1 -5.089 13.1705 15.689
813 1 -6.346 15.3485 19.261
814 1 -3.44 13.1705 17.934
815 1 -5.522 16.7765 14.362
816 1 -9.686 16.7765 17.934
817 1 -4.165 13.1705 14.362
818 1 -5.884 16.1495 17.934
819 2 -2.484 13.1705 18.255
820 2 -5.044 17.6045 14.684
821 2 -10.164 17.6045 18.255
822 2 -5.12 13.1705 14.684
823 2 -6.362 15.3215 18.255
824 2 -2.581 13.1705 20.926
825 2 -5.093 17.5205 17.354
826 2 -10.115 17.5205 20.926
827 2 -5.023 13.1705 17.354
828 2 -6.314 15.4055 20.926
829 1 -7.951 15.3845 24.849
830 1 -8.862 15.3485 22.832
831 1 -9.324 16.1495 21.505
832 2 -8.846 15.3215 21.827
833 2 -8.894 15.4055 24.497
834 1 -2.092 13.9765 28.421
835 1 -5.546 18.3475 24.849
836 1 -3.455 17.5405 28.421
837 1 -9.314 18.9495 24.849
838 1 -5.86 14.5785 28.421
839 1 -5.513 13.9765 24.849
840 1 -7.257 15.3845 28.421
841 1 -1.744 14.5785 24.849
842 1 -5.894 18.9495 28.421
843 1 -4.15 17.5405 24.849
844 1 -9.662 18.3475 28.421
845 1 -2.516 13.1705 26.404
846 1 -5.06 17.5765 22.832
847 1 -10.148 17.5765 26.404
848 1 -5.089 13.1705 22.832
849 1 -6.346 15.3485 26.404
850 1 -3.44 13.1705 25.077
851 1 -5.522 16.7765 21.505
852 1 -9.686 16.7765 25.077
853 1 -4.165 13.1705 21.505
854 1 -5.884 16.1495 25.077
855 2 -2.484 13.1705 25.398
856 2 -5.044 17.6045 21.827
857 2 -10.164 17.6045 25.398
858 2 -5.12 13.1705 21.827
859 2 -6.362 15.3215 25.398
860 2 -2.581 13.1705 28.069
861 2 -5.093 17.5205 24.497
862 2 -10.115 17.5205 28.069
863 2 -5.023 13.1705 24.497
864 2 -6.314 15.4055 28.069
865 1 -7.951 15.3845 31.992
866 1 -8.862 15.3485 29.975
867 1 -9.324 16.1495 28.648
868 2 -8.846 15.3215 28.97
869 2 -8.894 15.4055 31.64
870 1 -2.092 13.9765 35.564
871 1 -5.546 18.3475 31.992
872 1 -3.455 17.5405 35.564
873 1 -9.314 18.9495 31.992
874 1 -5.86 14.5785 35.564
875 1 -5.513 13.9765 31.992
876 1 -7.257 15.3845 35.564
877 1 -1.744 14.5785 31.992
878 1 -5.894 18.9495 35.564
879 1 -4.15 17.5405 31.992
880 1 -9.662 18.3475 35.564
881 1 -2.516 13.1705 33.547
882 1 -5.06 17.5765 29.975
883 1 -10.148 17.5765 33.547
884 1 -5.089 13.1705 29.975
885 1 -6.346 15.3485 33.547
886 1 -3.44 13.1705 32.22
887 1 -5.522 16.7765 28.648
888 1 -9.686 16.7765 32.22
889 1 -4.165 13.1705 28.648
890 1 -5.884 16.1495 32.22
891 2 -2.484 13.1705 32.541
892 2 -5.044 17.6045 28.97
893 2 -10.164 17.6045 32.541
894 2 -5.12 13.1705 28.97
895 2 -6.362 15.3215 32.541
896 2 -2.581 13.1705 35.212
897 2 -5.093 17.5205 31.64
898 2 -10.115 17.5205 35.212
899 2 -5.023 13.1705 31.64
900 2 -6.314 15.4055 35.212
901 1 -7.951 15.3845 39.135
902 1 -8.862 15.3485 37.118
903 1 -9.324 16.1495 35.791
904 2 -8.846 15.3215 36.113
905 2 -8.894 15.4055 38.783
906 1 -2.092 13.9765 42.707
907 1 -5.546 18.3475 39.135
908 1 -3.455 17.5405 42.707
909 1 -9.314 18.9495 39.135
910 1 -5.86 14.5785 42.707
911 1 -5.513 13.9765 39.135
912 1 -7.257 15.3845 42.707
913 1 -1.744 14.5785 39.135
914 1 -5.894 18.9495 42.707
915 1 -4.15 17.5405 39.135
916 1 -9.662 18.3475 42.707
917 1 -2.516 13.1705 40.69
918 1 -5.06 17.5765 37.118
919 1 -10.148 17.5765 40.69
920 1 -5.089 13.1705 37.118
921 1 -6.346 15.3485 40.69
922 1 -3.44 13.1705 39.363
923 1 -5.522 16.7765 35.791
924 1 -9.686 16.7765 39.363
925 1 -4.165 13.1705 35.791
926 1 -5.884 16.1495 39.363
927 2 -2.484 13.1705 39.684
928 2 -5.044 17.6045 36.113
929 2 -10.164 17.6045 39.684
930 2 -5.12 13.1705 36.113
931 2 -6.362 15.3215 39.684
932 2 -2.581 13.1705 42.355
933 2 -5.093 17.5205 38.783
934 2 -10.115 17.5205 42.355
935 2 -5.023 13.1705 38.783
936 2 -6.314 15.4055 42.355
937 1 -7.951 15.3845 46.278
938 1 -8.862 15.3485 44.261
939 1 -9.324 16.1495 42.934
940 2 -8.846 15.3215 43.256
941 2 -8.894 15.4055 45.926
942 1 -2.092 13.9765 49.85
943 1 -5.546 18.3475 46.278
944 1 -3.455 17.5405 49.85
945 1 -9.314 18.9495 46.278
946 1 -5.86 14.5785 49.85
947 1 -5.513 13.9765 46.278
948 1 -7.257 15.3845 49.85
949 1 -1.744 14.5785 46.278
950 1 -5.894 18.9495 49.85
951 1 -4.15 17.5405 46.278
952 1 -9.662 18.3475 49.85
953 1 -2.516 13.1705 47.833
954 1 -5.06 17.5765 44.261
955 1 -10.148 17.5765 47.833
956 1 -5.089 13.1705 44.261
957 1 -6.346 15.3485 47.833
958 1 -3.44 13.1705 46.506
959 1 -5.522 16.7765 42.934
960 1 -9.686 16.7765 46.506
961 1 -4.165 13.1705 42.934
962 1 -5.884 16.1495 46.506
963 2 -2.484 13.1705 46.827
964 2 -5.044 17.6045 43.256
965 2 -10.164 17.6045 46.827
966 2 -5.12 13.1705 43.256
967 2 -6.362 15.3215 46.827
968 2 -2.581 13.1705 49.498
969 2 -5.093 17.5205 45.926
970 2 -10.115 17.5205 49.498
971 2 -5.023 13.1705 45.926
972 2 -6.314 15.4055 49.498
973 1 -7.951 15.3845 53.421
974 1 -8.862 15.3485 51.404
975 1 -9.324 16.1495 50.077
976 2 -8.846 15.3215 50.399
977 2 -8.894 15.4055 53.069
978 1 -2.092 13.9765 56.993
979 1 -5.546 18.3475 53.421
980 1 -3.455 17.5405 56.993
981 1 -9.314 18.9495 53.421
982 1 -5.86 14.5785 56.993
983 1 -5.513 13.9765 53.421
984 1 -7.257 15.3845 56.993
985 1 -1.744 14.5785 53.421
986 1 -5.894 18.9495 56.993
987 1 -4.15 17.5405 53.421
988 1 -9.662 18.3475 56.993
989 1 -2.516 13.1705 54.976
990 1 -5.06 17.5765 51.404
991 1 -10.148 17.5765 54.976
992 1 -5.089 13.1705 51.404
993 1 -6.346 15.3485 54.976
994 1 -3.44 13.1705 53.649
995 1 -5.522 16.7765 50.077
996 1 -9.686 16.7765 53.649
997 1 -4.165 13.1705 50.077
998 1 -5.884 16.1495 53.649
999 2 -2.484 13.1705 53.97
1000 2 -5.044 17.6045 50.399
1001 2 -10.164 17.6045 53.97
1002 2 -5.12 13.1705 50.399
1003 2 -6.362 15.3215 53.97
1004 2 -2.581 13.1705 56.641
1005 2 -5.093 17.5205 53.069
1006 2 -10.115 17.5205 56.641
1007 2 -5.023 13.1705 53.069
1008 2 -6.314 15.4055 56.641
1009 1 -7.951 15.3845 60.564
1010 1 -8.862 15.3485 58.547
1011 1 -9.324 16.1495 57.22
1012 2 -8.846 15.3215 57.542
1013 2 -8.894 15.4055 60.212
1014 1 -2.092 13.9765 64.136
1015 1 -5.546 18.3475 60.564
1016 1 -3.455 17.5405 64.136
1017 1 -9.314 18.9495 60.564
1018 1 -5.86 14.5785 64.136
1019 1 -5.513 13.9765 60.564
1020 1 -7.257 15.3845 64.136
1021 1 -1.744 14.5785 60.564
1022 1 -5.894 18.9495 64.136
1023 1 -4.15 17.5405 60.564
1024 1 -9.662 18.3475 64.136
1025 1 -2.516 13.1705 62.119
1026 1 -5.06 17.5765 58.547
1027 1 -10.148 17.5765 62.119
1028 1 -5.089 13.1705 58.547
1029 1 -6.346 15.3485 62.119
1030 1 -3.44 13.1705 60.792
1031 1 -5.522 16.7765 57.22
1032 1 -9.686 16.7765 60.792
1033 1 -4.165 13.1705 57.22
1034 1 -5.884 16.1495 60.792
1035 2 -2.484 13.1705 61.113
1036 2 -5.044 17.6045 57.542
1037 2 -10.164 17.6045 61.113
1038 2 -5.12 13.1705 57.542
1039 2 -6.362 15.3215 61.113
1040 2 -2.581 13.1705 63.784
1041 2 -5.093 17.5205 60.212
1042 2 -10.115 17.5205 63.784
1043 2 -5.023 13.1705 60.212
1044 2 -6.314 15.4055 63.784
1045 1 -7.951 15.3845 67.707
1046 1 -8.862 15.3485 65.69
1047 1 -9.324 16.1495 64.363
1048 2 -8.846 15.3215 64.685
1049 2 -8.894 15.4055 67.355
1050 1 -2.092 13.9765 71.279
1051 1 -5.546 18.3475 67.707
1052 1 -3.455 17.5405 71.279
1053 1 -9.314 18.9495 67.707
1054 1 -5.86 14.5785 71.279
1055 1 -5.513 13.9765 67.707
1056 1 -7.257 15.3845 71.279
1057 1 -1.744 14.5785 67.707
1058 1 -5.894 18.9495 71.279
1059 1 -4.15 17.5405 67.707
1060 1 -9.662 18.3475 71.279
1061 1 -2.516 13.1705 69.262
1062 1 -5.06 17.5765 65.69
1063 1 -10.148 17.5765 69.262
1064 1 -5.089 13.1705 65.69
1065 1 -6.346 15.3485 69.262
1066 1 -3.44 13.1705 67.935
1067 1 -5.522 16.7765 64.363
1068 1 -9.686 16.7765 67.935
1069 1 -4.165 13.1705 64.363
1070 1 -5.884 16.1495 67.935
1071 2 -2.484 13.1705 68.256
1072 2 -5.044 17.6045 64.685
1073 2 -10.164 17.6045 68.256
1074 2 -5.12 13.1705 64.685
1075 2 -6.362 15.3215 68.256
1076 2 -2.581 13.1705 70.927
1077 2 -5.093 17.5205 67.355
1078 2 -10.115 17.5205 70.927
1079 2 -5.023 13.1705 67.355
1080 2 -6.314 15.4055 70.927
1081 1 -11.753 21.9698 3.42
1082 1 -12.664 21.9338 1.403
1083 1 -13.126 22.7348 0.076
1084 2 -12.648 21.9068 0.398
1085 2 -12.696 21.9908 3.068
1086 1 -5.894 20.5618 6.992
1087 1 -9.348 24.9328 3.42
1088 1 -7.257 24.1258 6.992
1089 1 -13.116 25.5348 3.42
1090 1 -9.662 21.1638 6.992
1091 1 -9.315 20.5618 3.42
1092 1 -11.059 21.9698 6.992
1093 1 -5.546 21.1638 3.42
1094 1 -9.696 25.5348 6.992
1095 1 -7.952 24.1258 3.42
1096 1 -13.464 24.9328 6.992
1097 1 -6.318 19.7558 4.975
1098 1 -8.862 24.1618 1.403
1099 1 -13.95 24.1618 4.975
1100 1 -8.891 19.7558 1.403
1101 1 -10.148 21.9338 4.975
1102 1 -7.242 19.7558 3.648
1103 1 -9.324 23.3618 0.076
1104 1 -13.488 23.3618 3.648
1105 1 -7.967 19.7558 0.076
1106 1 -9.686 22.7348 3.648
1107 2 -6.286 19.7558 3.969
1108 2 -8.846 24.1898 0.398
1109 2 -13.966 24.1898 3.969
1110 2 -8.922 19.7558 0.398
1111 2 -10.164 21.9068 3.969
1112 2 -6.383 19.7558 6.64
1113 2 -8.895 24.1058 3.068
1114 2 -13.917 24.1058 6.64
1115 2 -8.825 19.7558 3.068
1116 2 -10.116 21.9908 6.64
1117 1 -11.753 21.9698 10.563
1118 1 -12.664 21.9338 8.546
1119 1 -13.126 22.7348 7.219
1120 2 -12.648 21.9068 7.541
1121 2 -12.696 21.9908 10.211
1122 1 -5.894 20.5618 14.135
1123 1 -9.348 24.9328 10.563
1124 1 -7.257 24.1258 14.135
1125 1 -13.116 25.5348 10.563