LAMMPS data file. CGCMM style. atom_style full generated by VMD/TopoTools v1.8 on Sat May 21 00:19:23 EDT 2022
 36000 atoms
 23600 bonds
 11600 angles
 0 dihedrals
 0 impropers
 2 atom types
 1 bond types
 1 angle types
 0 dihedral types
 0 improper types
 -21.776001 54.264000  xlo xhi
 -0.663135 65.189438  ylo yhi
 -0.052501 71.377499  zlo zhi
 -38.020000 0.000000 0.000000 xy xz yz

# Pair Coeffs
#
# 1  H
# 2  O

# Bond Coeffs
#
# 1  H-O

# Angle Coeffs
#
# 1  H-O-H

 Masses

 1 1.007940 # H
 2 15.999400 # O

 Atoms # full

1 1 1 0.000000 -0.347000 2.214000 3.420000 # H 
2 1 1 0.000000 -1.258000 2.178000 1.403000 # H 
3 1 1 0.000000 -1.720000 2.979000 0.076000 # H 
4 1 2 0.000000 -1.242000 2.151000 0.398000 # O 
5 1 2 0.000000 -1.290000 2.235000 3.068000 # O 
6 1 1 0.000000 5.512000 0.806000 6.992000 # H 
7 1 1 0.000000 2.058000 5.177000 3.420000 # H 
8 1 1 0.000000 4.149000 4.370000 6.992000 # H 
9 1 1 0.000000 -1.710000 5.779000 3.420000 # H 
10 1 1 0.000000 1.744000 1.408000 6.992000 # H 
11 1 1 0.000000 2.091000 0.806000 3.420000 # H 
12 1 1 0.000000 0.347000 2.214000 6.992000 # H 
13 1 1 0.000000 5.860000 1.408000 3.420000 # H 
14 1 1 0.000000 1.710000 5.779000 6.992000 # H 
15 1 1 0.000000 3.454000 4.370000 3.420000 # H 
16 1 1 0.000000 -2.058000 5.177000 6.992000 # H 
17 1 1 0.000000 5.088000 0.000000 4.975000 # H 
18 1 1 0.000000 2.544000 4.406000 1.403000 # H 
19 1 1 0.000000 -2.544000 4.406000 4.975000 # H 
20 1 1 0.000000 2.515000 0.000000 1.403000 # H 
21 1 1 0.000000 1.258000 2.178000 4.975000 # H 
22 1 1 0.000000 4.164000 0.000000 3.648000 # H 
23 1 1 0.000000 2.082000 3.606000 0.076000 # H 
24 1 1 0.000000 -2.082000 3.606000 3.648000 # H 
25 1 1 0.000000 3.439000 0.000000 0.076000 # H 
26 1 1 0.000000 1.720000 2.979000 3.648000 # H 
27 1 2 0.000000 5.120000 0.000000 3.969000 # O 
28 1 2 0.000000 2.560000 4.434000 0.398000 # O 
29 1 2 0.000000 -2.560000 4.434000 3.969000 # O 
30 1 2 0.000000 2.484000 0.000000 0.398000 # O 
31 1 2 0.000000 1.242000 2.151000 3.969000 # O 
32 1 2 0.000000 5.023000 0.000000 6.640000 # O 
33 1 2 0.000000 2.511000 4.350000 3.068000 # O 
34 1 2 0.000000 -2.511000 4.350000 6.640000 # O 
35 1 2 0.000000 2.581000 0.000000 3.068000 # O 
36 1 2 0.000000 1.290000 2.235000 6.640000 # O 
37 1 1 0.000000 -0.347000 2.214000 10.563000 # H 
38 1 1 0.000000 -1.258000 2.178000 8.546000 # H 
39 1 1 0.000000 -1.720000 2.979000 7.219000 # H 
40 1 2 0.000000 -1.242000 2.151000 7.541000 # O 
41 1 2 0.000000 -1.290000 2.235000 10.211000 # O 
42 1 1 0.000000 5.512000 0.806000 14.135000 # H 
43 1 1 0.000000 2.058000 5.177000 10.563000 # H 
44 1 1 0.000000 4.149000 4.370000 14.135000 # H 
45 1 1 0.000000 -1.710000 5.779000 10.563000 # H 
46 1 1 0.000000 1.744000 1.408000 14.135000 # H 
47 1 1 0.000000 2.091000 0.806000 10.563000 # H 
48 1 1 0.000000 0.347000 2.214000 14.135000 # H 
49 1 1 0.000000 5.860000 1.408000 10.563000 # H 
50 1 1 0.000000 1.710000 5.779000 14.135000 # H 
51 1 1 0.000000 3.454000 4.370000 10.563000 # H 
52 1 1 0.000000 -2.058000 5.177000 14.135000 # H 
53 1 1 0.000000 5.088000 0.000000 12.118000 # H 
54 1 1 0.000000 2.544000 4.406000 8.546000 # H 
55 1 1 0.000000 -2.544000 4.406000 12.118000 # H 
56 1 1 0.000000 2.515000 0.000000 8.546000 # H 
57 1 1 0.000000 1.258000 2.178000 12.118000 # H 
58 1 1 0.000000 4.164000 0.000000 10.791000 # H 
59 1 1 0.000000 2.082000 3.606000 7.219000 # H 
60 1 1 0.000000 -2.082000 3.606000 10.791000 # H 
61 1 1 0.000000 3.439000 0.000000 7.219000 # H 
62 1 1 0.000000 1.720000 2.979000 10.791000 # H 
63 1 2 0.000000 5.120000 0.000000 11.112000 # O 
64 1 2 0.000000 2.560000 4.434000 7.541000 # O 
65 1 2 0.000000 -2.560000 4.434000 11.112000 # O 
66 1 2 0.000000 2.484000 0.000000 7.541000 # O 
67 1 2 0.000000 1.242000 2.151000 11.112000 # O 
68 1 2 0.000000 5.023000 0.000000 13.783000 # O 
69 1 2 0.000000 2.511000 4.350000 10.211000 # O 
70 1 2 0.000000 -2.511000 4.350000 13.783000 # O 
71 1 2 0.000000 2.581000 0.000000 10.211000 # O 
72 1 2 0.000000 1.290000 2.235000 13.783000 # O 
73 1 1 0.000000 -0.347000 2.214000 17.705999 # H 
74 1 1 0.000000 -1.258000 2.178000 15.689000 # H 
75 1 1 0.000000 -1.720000 2.979000 14.362000 # H 
76 1 2 0.000000 -1.242000 2.151000 14.684000 # O 
77 1 2 0.000000 -1.290000 2.235000 17.354000 # O 
78 1 1 0.000000 5.512000 0.806000 21.278000 # H 
79 1 1 0.000000 2.058000 5.177000 17.705999 # H 
80 1 1 0.000000 4.149000 4.370000 21.278000 # H 
81 1 1 0.000000 -1.710000 5.779000 17.705999 # H 
82 1 1 0.000000 1.744000 1.408000 21.278000 # H 
83 1 1 0.000000 2.091000 0.806000 17.705999 # H 
84 1 1 0.000000 0.347000 2.214000 21.278000 # H 
85 1 1 0.000000 5.860000 1.408000 17.705999 # H 
86 1 1 0.000000 1.710000 5.779000 21.278000 # H 
87 1 1 0.000000 3.454000 4.370000 17.705999 # H 
88 1 1 0.000000 -2.058000 5.177000 21.278000 # H 
89 1 1 0.000000 5.088000 0.000000 19.261000 # H 
90 1 1 0.000000 2.544000 4.406000 15.689000 # H 
91 1 1 0.000000 -2.544000 4.406000 19.261000 # H 
92 1 1 0.000000 2.515000 0.000000 15.689000 # H 
93 1 1 0.000000 1.258000 2.178000 19.261000 # H 
94 1 1 0.000000 4.164000 0.000000 17.934000 # H 
95 1 1 0.000000 2.082000 3.606000 14.362000 # H 
96 1 1 0.000000 -2.082000 3.606000 17.934000 # H 
97 1 1 0.000000 3.439000 0.000000 14.362000 # H 
98 1 1 0.000000 1.720000 2.979000 17.934000 # H 
99 1 2 0.000000 5.120000 0.000000 18.254999 # O 
100 1 2 0.000000 2.560000 4.434000 14.684000 # O 
101 1 2 0.000000 -2.560000 4.434000 18.254999 # O 
102 1 2 0.000000 2.484000 0.000000 14.684000 # O 
103 1 2 0.000000 1.242000 2.151000 18.254999 # O 
104 1 2 0.000000 5.023000 0.000000 20.926001 # O 
105 1 2 0.000000 2.511000 4.350000 17.354000 # O 
106 1 2 0.000000 -2.511000 4.350000 20.926001 # O 
107 1 2 0.000000 2.581000 0.000000 17.354000 # O 
108 1 2 0.000000 1.290000 2.235000 20.926001 # O 
109 1 1 0.000000 -0.347000 2.214000 24.849001 # H 
110 1 1 0.000000 -1.258000 2.178000 22.832001 # H 
111 1 1 0.000000 -1.720000 2.979000 21.504999 # H 
112 1 2 0.000000 -1.242000 2.151000 21.827000 # O 
113 1 2 0.000000 -1.290000 2.235000 24.497000 # O 
114 1 1 0.000000 5.512000 0.806000 28.421000 # H 
115 1 1 0.000000 2.058000 5.177000 24.849001 # H 
116 1 1 0.000000 4.149000 4.370000 28.421000 # H 
117 1 1 0.000000 -1.710000 5.779000 24.849001 # H 
118 1 1 0.000000 1.744000 1.408000 28.421000 # H 
119 1 1 0.000000 2.091000 0.806000 24.849001 # H 
120 1 1 0.000000 0.347000 2.214000 28.421000 # H 
121 1 1 0.000000 5.860000 1.408000 24.849001 # H 
122 1 1 0.000000 1.710000 5.779000 28.421000 # H 
123 1 1 0.000000 3.454000 4.370000 24.849001 # H 
124 1 1 0.000000 -2.058000 5.177000 28.421000 # H 
125 1 1 0.000000 5.088000 0.000000 26.403999 # H 
126 1 1 0.000000 2.544000 4.406000 22.832001 # H 
127 1 1 0.000000 -2.544000 4.406000 26.403999 # H 
128 1 1 0.000000 2.515000 0.000000 22.832001 # H 
129 1 1 0.000000 1.258000 2.178000 26.403999 # H 
130 1 1 0.000000 4.164000 0.000000 25.077000 # H 
131 1 1 0.000000 2.082000 3.606000 21.504999 # H 
132 1 1 0.000000 -2.082000 3.606000 25.077000 # H 
133 1 1 0.000000 3.439000 0.000000 21.504999 # H 
134 1 1 0.000000 1.720000 2.979000 25.077000 # H 
135 1 2 0.000000 5.120000 0.000000 25.398001 # O 
136 1 2 0.000000 2.560000 4.434000 21.827000 # O 
137 1 2 0.000000 -2.560000 4.434000 25.398001 # O 
138 1 2 0.000000 2.484000 0.000000 21.827000 # O 
139 1 2 0.000000 1.242000 2.151000 25.398001 # O 
140 1 2 0.000000 5.023000 0.000000 28.069000 # O 
141 1 2 0.000000 2.511000 4.350000 24.497000 # O 
142 1 2 0.000000 -2.511000 4.350000 28.069000 # O 
143 1 2 0.000000 2.581000 0.000000 24.497000 # O 
144 1 2 0.000000 1.290000 2.235000 28.069000 # O 
145 1 1 0.000000 -0.347000 2.214000 31.992001 # H 
146 1 1 0.000000 -1.258000 2.178000 29.975000 # H 
147 1 1 0.000000 -1.720000 2.979000 28.648001 # H 
148 1 2 0.000000 -1.242000 2.151000 28.969999 # O 
149 1 2 0.000000 -1.290000 2.235000 31.639999 # O 
150 1 1 0.000000 5.512000 0.806000 35.563999 # H 
151 1 1 0.000000 2.058000 5.177000 31.992001 # H 
152 1 1 0.000000 4.149000 4.370000 35.563999 # H 
153 1 1 0.000000 -1.710000 5.779000 31.992001 # H 
154 1 1 0.000000 1.744000 1.408000 35.563999 # H 
155 1 1 0.000000 2.091000 0.806000 31.992001 # H 
156 1 1 0.000000 0.347000 2.214000 35.563999 # H 
157 1 1 0.000000 5.860000 1.408000 31.992001 # H 
158 1 1 0.000000 1.710000 5.779000 35.563999 # H 
159 1 1 0.000000 3.454000 4.370000 31.992001 # H 
160 1 1 0.000000 -2.058000 5.177000 35.563999 # H 
161 1 1 0.000000 5.088000 0.000000 33.547001 # H 
162 1 1 0.000000 2.544000 4.406000 29.975000 # H 
163 1 1 0.000000 -2.544000 4.406000 33.547001 # H 
164 1 1 0.000000 2.515000 0.000000 29.975000 # H 
165 1 1 0.000000 1.258000 2.178000 33.547001 # H 
166 1 1 0.000000 4.164000 0.000000 32.220001 # H 
167 1 1 0.000000 2.082000 3.606000 28.648001 # H 
168 1 1 0.000000 -2.082000 3.606000 32.220001 # H 
169 1 1 0.000000 3.439000 0.000000 28.648001 # H 
170 1 1 0.000000 1.720000 2.979000 32.220001 # H 
171 1 2 0.000000 5.120000 0.000000 32.541000 # O 
172 1 2 0.000000 2.560000 4.434000 28.969999 # O 
173 1 2 0.000000 -2.560000 4.434000 32.541000 # O 
174 1 2 0.000000 2.484000 0.000000 28.969999 # O 
175 1 2 0.000000 1.242000 2.151000 32.541000 # O 
176 1 2 0.000000 5.023000 0.000000 35.212002 # O 
177 1 2 0.000000 2.511000 4.350000 31.639999 # O 
178 1 2 0.000000 -2.511000 4.350000 35.212002 # O 
179 1 2 0.000000 2.581000 0.000000 31.639999 # O 
180 1 2 0.000000 1.290000 2.235000 35.212002 # O 
181 1 1 0.000000 -0.347000 2.214000 39.134998 # H 
182 1 1 0.000000 -1.258000 2.178000 37.118000 # H 
183 1 1 0.000000 -1.720000 2.979000 35.791000 # H 
184 1 2 0.000000 -1.242000 2.151000 36.112999 # O 
185 1 2 0.000000 -1.290000 2.235000 38.783001 # O 
186 1 1 0.000000 5.512000 0.806000 42.707001 # H 
187 1 1 0.000000 2.058000 5.177000 39.134998 # H 
188 1 1 0.000000 4.149000 4.370000 42.707001 # H 
189 1 1 0.000000 -1.710000 5.779000 39.134998 # H 
190 1 1 0.000000 1.744000 1.408000 42.707001 # H 
191 1 1 0.000000 2.091000 0.806000 39.134998 # H 
192 1 1 0.000000 0.347000 2.214000 42.707001 # H 
193 1 1 0.000000 5.860000 1.408000 39.134998 # H 
194 1 1 0.000000 1.710000 5.779000 42.707001 # H 
195 1 1 0.000000 3.454000 4.370000 39.134998 # H 
196 1 1 0.000000 -2.058000 5.177000 42.707001 # H 
197 1 1 0.000000 5.088000 0.000000 40.689999 # H 
198 1 1 0.000000 2.544000 4.406000 37.118000 # H 
199 1 1 0.000000 -2.544000 4.406000 40.689999 # H 
200 1 1 0.000000 2.515000 0.000000 37.118000 # H 
201 1 1 0.000000 1.258000 2.178000 40.689999 # H 
202 1 1 0.000000 4.164000 0.000000 39.362999 # H 
203 1 1 0.000000 2.082000 3.606000 35.791000 # H 
204 1 1 0.000000 -2.082000 3.606000 39.362999 # H 
205 1 1 0.000000 3.439000 0.000000 35.791000 # H 
206 1 1 0.000000 1.720000 2.979000 39.362999 # H 
207 1 2 0.000000 5.120000 0.000000 39.683998 # O 
208 1 2 0.000000 2.560000 4.434000 36.112999 # O 
209 1 2 0.000000 -2.560000 4.434000 39.683998 # O 
210 1 2 0.000000 2.484000 0.000000 36.112999 # O 
211 1 2 0.000000 1.242000 2.151000 39.683998 # O 
212 1 2 0.000000 5.023000 0.000000 42.355000 # O 
213 1 2 0.000000 2.511000 4.350000 38.783001 # O 
214 1 2 0.000000 -2.511000 4.350000 42.355000 # O 
215 1 2 0.000000 2.581000 0.000000 38.783001 # O 
216 1 2 0.000000 1.290000 2.235000 42.355000 # O 
217 1 1 0.000000 -0.347000 2.214000 46.278000 # H 
218 1 1 0.000000 -1.258000 2.178000 44.261002 # H 
219 1 1 0.000000 -1.720000 2.979000 42.933998 # H 
220 1 2 0.000000 -1.242000 2.151000 43.256001 # O 
221 1 2 0.000000 -1.290000 2.235000 45.925999 # O 
222 1 1 0.000000 5.512000 0.806000 49.849998 # H 
223 1 1 0.000000 2.058000 5.177000 46.278000 # H 
224 1 1 0.000000 4.149000 4.370000 49.849998 # H 
225 1 1 0.000000 -1.710000 5.779000 46.278000 # H 
226 1 1 0.000000 1.744000 1.408000 49.849998 # H 
227 1 1 0.000000 2.091000 0.806000 46.278000 # H 
228 1 1 0.000000 0.347000 2.214000 49.849998 # H 
229 1 1 0.000000 5.860000 1.408000 46.278000 # H 
230 1 1 0.000000 1.710000 5.779000 49.849998 # H 
231 1 1 0.000000 3.454000 4.370000 46.278000 # H 
232 1 1 0.000000 -2.058000 5.177000 49.849998 # H 
233 1 1 0.000000 5.088000 0.000000 47.833000 # H 
234 1 1 0.000000 2.544000 4.406000 44.261002 # H 
235 1 1 0.000000 -2.544000 4.406000 47.833000 # H 
236 1 1 0.000000 2.515000 0.000000 44.261002 # H 
237 1 1 0.000000 1.258000 2.178000 47.833000 # H 
238 1 1 0.000000 4.164000 0.000000 46.506001 # H 
239 1 1 0.000000 2.082000 3.606000 42.933998 # H 
240 1 1 0.000000 -2.082000 3.606000 46.506001 # H 
241 1 1 0.000000 3.439000 0.000000 42.933998 # H 
242 1 1 0.000000 1.720000 2.979000 46.506001 # H 
243 1 2 0.000000 5.120000 0.000000 46.827000 # O 
244 1 2 0.000000 2.560000 4.434000 43.256001 # O 
245 1 2 0.000000 -2.560000 4.434000 46.827000 # O 
246 1 2 0.000000 2.484000 0.000000 43.256001 # O 
247 1 2 0.000000 1.242000 2.151000 46.827000 # O 
248 1 2 0.000000 5.023000 0.000000 49.498001 # O 
249 1 2 0.000000 2.511000 4.350000 45.925999 # O 
250 1 2 0.000000 -2.511000 4.350000 49.498001 # O 
251 1 2 0.000000 2.581000 0.000000 45.925999 # O 
252 1 2 0.000000 1.290000 2.235000 49.498001 # O 
253 1 1 0.000000 -0.347000 2.214000 53.421001 # H 
254 1 1 0.000000 -1.258000 2.178000 51.403999 # H 
255 1 1 0.000000 -1.720000 2.979000 50.077000 # H 
256 1 2 0.000000 -1.242000 2.151000 50.398998 # O 
257 1 2 0.000000 -1.290000 2.235000 53.069000 # O 
258 1 1 0.000000 5.512000 0.806000 56.993000 # H 
259 1 1 0.000000 2.058000 5.177000 53.421001 # H 
260 1 1 0.000000 4.149000 4.370000 56.993000 # H 
261 1 1 0.000000 -1.710000 5.779000 53.421001 # H 
262 1 1 0.000000 1.744000 1.408000 56.993000 # H 
263 1 1 0.000000 2.091000 0.806000 53.421001 # H 
264 1 1 0.000000 0.347000 2.214000 56.993000 # H 
265 1 1 0.000000 5.860000 1.408000 53.421001 # H 
266 1 1 0.000000 1.710000 5.779000 56.993000 # H 
267 1 1 0.000000 3.454000 4.370000 53.421001 # H 
268 1 1 0.000000 -2.058000 5.177000 56.993000 # H 
269 1 1 0.000000 5.088000 0.000000 54.976002 # H 
270 1 1 0.000000 2.544000 4.406000 51.403999 # H 
271 1 1 0.000000 -2.544000 4.406000 54.976002 # H 
272 1 1 0.000000 2.515000 0.000000 51.403999 # H 
273 1 1 0.000000 1.258000 2.178000 54.976002 # H 
274 1 1 0.000000 4.164000 0.000000 53.648998 # H 
275 1 1 0.000000 2.082000 3.606000 50.077000 # H 
276 1 1 0.000000 -2.082000 3.606000 53.648998 # H 
277 1 1 0.000000 3.439000 0.000000 50.077000 # H 
278 1 1 0.000000 1.720000 2.979000 53.648998 # H 
279 1 2 0.000000 5.120000 0.000000 53.970001 # O 
280 1 2 0.000000 2.560000 4.434000 50.398998 # O 
281 1 2 0.000000 -2.560000 4.434000 53.970001 # O 
282 1 2 0.000000 2.484000 0.000000 50.398998 # O 
283 1 2 0.000000 1.242000 2.151000 53.970001 # O 
284 1 2 0.000000 5.023000 0.000000 56.640999 # O 
285 1 2 0.000000 2.511000 4.350000 53.069000 # O 
286 1 2 0.000000 -2.511000 4.350000 56.640999 # O 
287 1 2 0.000000 2.581000 0.000000 53.069000 # O 
288 1 2 0.000000 1.290000 2.235000 56.640999 # O 
289 1 1 0.000000 -0.347000 2.214000 60.563999 # H 
290 1 1 0.000000 -1.258000 2.178000 58.547001 # H 
291 1 1 0.000000 -1.720000 2.979000 57.220001 # H 
292 1 2 0.000000 -1.242000 2.151000 57.542000 # O 
293 1 2 0.000000 -1.290000 2.235000 60.212002 # O 
294 1 1 0.000000 5.512000 0.806000 64.136002 # H 
295 1 1 0.000000 2.058000 5.177000 60.563999 # H 
296 1 1 0.000000 4.149000 4.370000 64.136002 # H 
297 1 1 0.000000 -1.710000 5.779000 60.563999 # H 
298 1 1 0.000000 1.744000 1.408000 64.136002 # H 
299 1 1 0.000000 2.091000 0.806000 60.563999 # H 
300 1 1 0.000000 0.347000 2.214000 64.136002 # H 
301 1 1 0.000000 5.860000 1.408000 60.563999 # H 
302 1 1 0.000000 1.710000 5.779000 64.136002 # H 
303 1 1 0.000000 3.454000 4.370000 60.563999 # H 
304 1 1 0.000000 -2.058000 5.177000 64.136002 # H 
305 1 1 0.000000 5.088000 0.000000 62.118999 # H 
306 1 1 0.000000 2.544000 4.406000 58.547001 # H 
307 1 1 0.000000 -2.544000 4.406000 62.118999 # H 
308 1 1 0.000000 2.515000 0.000000 58.547001 # H 
309 1 1 0.000000 1.258000 2.178000 62.118999 # H 
310 1 1 0.000000 4.164000 0.000000 60.792000 # H 
311 1 1 0.000000 2.082000 3.606000 57.220001 # H 
312 1 1 0.000000 -2.082000 3.606000 60.792000 # H 
313 1 1 0.000000 3.439000 0.000000 57.220001 # H 
314 1 1 0.000000 1.720000 2.979000 60.792000 # H 
315 1 2 0.000000 5.120000 0.000000 61.112999 # O 
316 1 2 0.000000 2.560000 4.434000 57.542000 # O 
317 1 2 0.000000 -2.560000 4.434000 61.112999 # O 
318 1 2 0.000000 2.484000 0.000000 57.542000 # O 
319 1 2 0.000000 1.242000 2.151000 61.112999 # O 
320 1 2 0.000000 5.023000 0.000000 63.784000 # O 
321 1 2 0.000000 2.511000 4.350000 60.212002 # O 
322 1 2 0.000000 -2.511000 4.350000 63.784000 # O 
323 1 2 0.000000 2.581000 0.000000 60.212002 # O 
324 1 2 0.000000 1.290000 2.235000 63.784000 # O 
325 1 1 0.000000 -0.347000 2.214000 67.707001 # H 
326 1 1 0.000000 -1.258000 2.178000 65.690002 # H 
327 1 1 0.000000 -1.720000 2.979000 64.362999 # H 
328 1 2 0.000000 -1.242000 2.151000 64.684998 # O 
329 1 2 0.000000 -1.290000 2.235000 67.355003 # O 
330 1 1 0.000000 5.512000 0.806000 71.278999 # H 
331 1 1 0.000000 2.058000 5.177000 67.707001 # H 
332 1 1 0.000000 4.149000 4.370000 71.278999 # H 
333 1 1 0.000000 -1.710000 5.779000 67.707001 # H 
334 1 1 0.000000 1.744000 1.408000 71.278999 # H 
335 1 1 0.000000 2.091000 0.806000 67.707001 # H 
336 1 1 0.000000 0.347000 2.214000 71.278999 # H 
337 1 1 0.000000 5.860000 1.408000 67.707001 # H 
338 1 1 0.000000 1.710000 5.779000 71.278999 # H 
339 1 1 0.000000 3.454000 4.370000 67.707001 # H 
340 1 1 0.000000 -2.058000 5.177000 71.278999 # H 
341 1 1 0.000000 5.088000 0.000000 69.262001 # H 
342 1 1 0.000000 2.544000 4.406000 65.690002 # H 
343 1 1 0.000000 -2.544000 4.406000 69.262001 # H 
344 1 1 0.000000 2.515000 0.000000 65.690002 # H 
345 1 1 0.000000 1.258000 2.178000 69.262001 # H 
346 1 1 0.000000 4.164000 0.000000 67.934998 # H 
347 1 1 0.000000 2.082000 3.606000 64.362999 # H 
348 1 1 0.000000 -2.082000 3.606000 67.934998 # H 
349 1 1 0.000000 3.439000 0.000000 64.362999 # H 
350 1 1 0.000000 1.720000 2.979000 67.934998 # H 
351 1 2 0.000000 5.120000 0.000000 68.255997 # O 
352 1 2 0.000000 2.560000 4.434000 64.684998 # O 
353 1 2 0.000000 -2.560000 4.434000 68.255997 # O 
354 1 2 0.000000 2.484000 0.000000 64.684998 # O 
355 1 2 0.000000 1.242000 2.151000 68.255997 # O 
356 1 2 0.000000 5.023000 0.000000 70.927002 # O 
357 1 2 0.000000 2.511000 4.350000 67.355003 # O 
358 1 2 0.000000 -2.511000 4.350000 70.927002 # O 
359 1 2 0.000000 2.581000 0.000000 67.355003 # O 
360 1 2 0.000000 1.290000 2.235000 70.927002 # O 
361 1 1 0.000000 -4.149000 8.799260 3.420000 # H 
362 1 1 0.000000 -5.060000 8.763260 1.403000 # H 
363 1 1 0.000000 -5.522000 9.564260 0.076000 # H 
364 1 2 0.000000 -5.044000 8.736260 0.398000 # O 
365 1 2 0.000000 -5.092000 8.820260 3.068000 # O 
366 1 1 0.000000 1.710000 7.391260 6.992000 # H 
367 1 1 0.000000 -1.744000 11.762300 3.420000 # H 
368 1 1 0.000000 0.347000 10.955300 6.992000 # H 
369 1 1 0.000000 -5.512000 12.364300 3.420000 # H 
370 1 1 0.000000 -2.058000 7.993260 6.992000 # H 
371 1 1 0.000000 -1.711000 7.391260 3.420000 # H 
372 1 1 0.000000 -3.455000 8.799260 6.992000 # H 
373 1 1 0.000000 2.058000 7.993260 3.420000 # H 
374 1 1 0.000000 -2.092000 12.364300 6.992000 # H 
375 1 1 0.000000 -0.348000 10.955300 3.420000 # H 
376 1 1 0.000000 -5.860000 11.762300 6.992000 # H 
377 1 1 0.000000 1.286000 6.585260 4.975000 # H 
378 1 1 0.000000 -1.258000 10.991300 1.403000 # H 
379 1 1 0.000000 -6.346000 10.991300 4.975000 # H 
380 1 1 0.000000 -1.287000 6.585260 1.403000 # H 
381 1 1 0.000000 -2.544000 8.763260 4.975000 # H 
382 1 1 0.000000 0.362000 6.585260 3.648000 # H 
383 1 1 0.000000 -1.720000 10.191300 0.076000 # H 
384 1 1 0.000000 -5.884000 10.191300 3.648000 # H 
385 1 1 0.000000 -0.363000 6.585260 0.076000 # H 
386 1 1 0.000000 -2.082000 9.564260 3.648000 # H 
387 1 2 0.000000 1.318000 6.585260 3.969000 # O 
388 1 2 0.000000 -1.242000 11.019300 0.398000 # O 
389 1 2 0.000000 -6.362000 11.019300 3.969000 # O 
390 1 2 0.000000 -1.318000 6.585260 0.398000 # O 
391 1 2 0.000000 -2.560000 8.736260 3.969000 # O 
392 1 2 0.000000 1.221000 6.585260 6.640000 # O 
393 1 2 0.000000 -1.291000 10.935300 3.068000 # O 
394 1 2 0.000000 -6.313000 10.935300 6.640000 # O 
395 1 2 0.000000 -1.221000 6.585260 3.068000 # O 
396 1 2 0.000000 -2.512000 8.820260 6.640000 # O 
397 1 1 0.000000 -4.149000 8.799260 10.563000 # H 
398 1 1 0.000000 -5.060000 8.763260 8.546000 # H 
399 1 1 0.000000 -5.522000 9.564260 7.219000 # H 
400 1 2 0.000000 -5.044000 8.736260 7.541000 # O 
401 1 2 0.000000 -5.092000 8.820260 10.211000 # O 
402 1 1 0.000000 1.710000 7.391260 14.135000 # H 
403 1 1 0.000000 -1.744000 11.762300 10.563000 # H 
404 1 1 0.000000 0.347000 10.955300 14.135000 # H 
405 1 1 0.000000 -5.512000 12.364300 10.563000 # H 
406 1 1 0.000000 -2.058000 7.993260 14.135000 # H 
407 1 1 0.000000 -1.711000 7.391260 10.563000 # H 
408 1 1 0.000000 -3.455000 8.799260 14.135000 # H 
409 1 1 0.000000 2.058000 7.993260 10.563000 # H 
410 1 1 0.000000 -2.092000 12.364300 14.135000 # H 
411 1 1 0.000000 -0.348000 10.955300 10.563000 # H 
412 1 1 0.000000 -5.860000 11.762300 14.135000 # H 
413 1 1 0.000000 1.286000 6.585260 12.118000 # H 
414 1 1 0.000000 -1.258000 10.991300 8.546000 # H 
415 1 1 0.000000 -6.346000 10.991300 12.118000 # H 
416 1 1 0.000000 -1.287000 6.585260 8.546000 # H 
417 1 1 0.000000 -2.544000 8.763260 12.118000 # H 
418 1 1 0.000000 0.362000 6.585260 10.791000 # H 
419 1 1 0.000000 -1.720000 10.191300 7.219000 # H 
420 1 1 0.000000 -5.884000 10.191300 10.791000 # H 
421 1 1 0.000000 -0.363000 6.585260 7.219000 # H 
422 1 1 0.000000 -2.082000 9.564260 10.791000 # H 
423 1 2 0.000000 1.318000 6.585260 11.112000 # O 
424 1 2 0.000000 -1.242000 11.019300 7.541000 # O 
425 1 2 0.000000 -6.362000 11.019300 11.112000 # O 
426 1 2 0.000000 -1.318000 6.585260 7.541000 # O 
427 1 2 0.000000 -2.560000 8.736260 11.112000 # O 
428 1 2 0.000000 1.221000 6.585260 13.783000 # O 
429 1 2 0.000000 -1.291000 10.935300 10.211000 # O 
430 1 2 0.000000 -6.313000 10.935300 13.783000 # O 
431 1 2 0.000000 -1.221000 6.585260 10.211000 # O 
432 1 2 0.000000 -2.512000 8.820260 13.783000 # O 
433 1 1 0.000000 -4.149000 8.799260 17.705999 # H 
434 1 1 0.000000 -5.060000 8.763260 15.689000 # H 
435 1 1 0.000000 -5.522000 9.564260 14.362000 # H 
436 1 2 0.000000 -5.044000 8.736260 14.684000 # O 
437 1 2 0.000000 -5.092000 8.820260 17.354000 # O 
438 1 1 0.000000 1.710000 7.391260 21.278000 # H 
439 1 1 0.000000 -1.744000 11.762300 17.705999 # H 
440 1 1 0.000000 0.347000 10.955300 21.278000 # H 
441 1 1 0.000000 -5.512000 12.364300 17.705999 # H 
442 1 1 0.000000 -2.058000 7.993260 21.278000 # H 
443 1 1 0.000000 -1.711000 7.391260 17.705999 # H 
444 1 1 0.000000 -3.455000 8.799260 21.278000 # H 
445 1 1 0.000000 2.058000 7.993260 17.705999 # H 
446 1 1 0.000000 -2.092000 12.364300 21.278000 # H 
447 1 1 0.000000 -0.348000 10.955300 17.705999 # H 
448 1 1 0.000000 -5.860000 11.762300 21.278000 # H 
449 1 1 0.000000 1.286000 6.585260 19.261000 # H 
450 1 1 0.000000 -1.258000 10.991300 15.689000 # H 
451 1 1 0.000000 -6.346000 10.991300 19.261000 # H 
452 1 1 0.000000 -1.287000 6.585260 15.689000 # H 
453 1 1 0.000000 -2.544000 8.763260 19.261000 # H 
454 1 1 0.000000 0.362000 6.585260 17.934000 # H 
455 1 1 0.000000 -1.720000 10.191300 14.362000 # H 
456 1 1 0.000000 -5.884000 10.191300 17.934000 # H 
457 1 1 0.000000 -0.363000 6.585260 14.362000 # H 
458 1 1 0.000000 -2.082000 9.564260 17.934000 # H 
459 1 2 0.000000 1.318000 6.585260 18.254999 # O 
460 1 2 0.000000 -1.242000 11.019300 14.684000 # O 
461 1 2 0.000000 -6.362000 11.019300 18.254999 # O 
462 1 2 0.000000 -1.318000 6.585260 14.684000 # O 
463 1 2 0.000000 -2.560000 8.736260 18.254999 # O 
464 1 2 0.000000 1.221000 6.585260 20.926001 # O 
465 1 2 0.000000 -1.291000 10.935300 17.354000 # O 
466 1 2 0.000000 -6.313000 10.935300 20.926001 # O 
467 1 2 0.000000 -1.221000 6.585260 17.354000 # O 
468 1 2 0.000000 -2.512000 8.820260 20.926001 # O 
469 1 1 0.000000 -4.149000 8.799260 24.849001 # H 
470 1 1 0.000000 -5.060000 8.763260 22.832001 # H 
471 1 1 0.000000 -5.522000 9.564260 21.504999 # H 
472 1 2 0.000000 -5.044000 8.736260 21.827000 # O 
473 1 2 0.000000 -5.092000 8.820260 24.497000 # O 
474 1 1 0.000000 1.710000 7.391260 28.421000 # H 
475 1 1 0.000000 -1.744000 11.762300 24.849001 # H 
476 1 1 0.000000 0.347000 10.955300 28.421000 # H 
477 1 1 0.000000 -5.512000 12.364300 24.849001 # H 
478 1 1 0.000000 -2.058000 7.993260 28.421000 # H 
479 1 1 0.000000 -1.711000 7.391260 24.849001 # H 
480 1 1 0.000000 -3.455000 8.799260 28.421000 # H 
481 1 1 0.000000 2.058000 7.993260 24.849001 # H 
482 1 1 0.000000 -2.092000 12.364300 28.421000 # H 
483 1 1 0.000000 -0.348000 10.955300 24.849001 # H 
484 1 1 0.000000 -5.860000 11.762300 28.421000 # H 
485 1 1 0.000000 1.286000 6.585260 26.403999 # H 
486 1 1 0.000000 -1.258000 10.991300 22.832001 # H 
487 1 1 0.000000 -6.346000 10.991300 26.403999 # H 
488 1 1 0.000000 -1.287000 6.585260 22.832001 # H 
489 1 1 0.000000 -2.544000 8.763260 26.403999 # H 
490 1 1 0.000000 0.362000 6.585260 25.077000 # H 
491 1 1 0.000000 -1.720000 10.191300 21.504999 # H 
492 1 1 0.000000 -5.884000 10.191300 25.077000 # H 
493 1 1 0.000000 -0.363000 6.585260 21.504999 # H 
494 1 1 0.000000 -2.082000 9.564260 25.077000 # H 
495 1 2 0.000000 1.318000 6.585260 25.398001 # O 
496 1 2 0.000000 -1.242000 11.019300 21.827000 # O 
497 1 2 0.000000 -6.362000 11.019300 25.398001 # O 
498 1 2 0.000000 -1.318000 6.585260 21.827000 # O 
499 1 2 0.000000 -2.560000 8.736260 25.398001 # O 
500 1 2 0.000000 1.221000 6.585260 28.069000 # O 
501 1 2 0.000000 -1.291000 10.935300 24.497000 # O 
502 1 2 0.000000 -6.313000 10.935300 28.069000 # O 
503 1 2 0.000000 -1.221000 6.585260 24.497000 # O 
504 1 2 0.000000 -2.512000 8.820260 28.069000 # O 
505 1 1 0.000000 -4.149000 8.799260 31.992001 # H 
506 1 1 0.000000 -5.060000 8.763260 29.975000 # H 
507 1 1 0.000000 -5.522000 9.564260 28.648001 # H 
508 1 2 0.000000 -5.044000 8.736260 28.969999 # O 
509 1 2 0.000000 -5.092000 8.820260 31.639999 # O 
510 1 1 0.000000 1.710000 7.391260 35.563999 # H 
511 1 1 0.000000 -1.744000 11.762300 31.992001 # H 
512 1 1 0.000000 0.347000 10.955300 35.563999 # H 
513 1 1 0.000000 -5.512000 12.364300 31.992001 # H 
514 1 1 0.000000 -2.058000 7.993260 35.563999 # H 
515 1 1 0.000000 -1.711000 7.391260 31.992001 # H 
516 1 1 0.000000 -3.455000 8.799260 35.563999 # H 
517 1 1 0.000000 2.058000 7.993260 31.992001 # H 
518 1 1 0.000000 -2.092000 12.364300 35.563999 # H 
519 1 1 0.000000 -0.348000 10.955300 31.992001 # H 
520 1 1 0.000000 -5.860000 11.762300 35.563999 # H 
521 1 1 0.000000 1.286000 6.585260 33.547001 # H 
522 1 1 0.000000 -1.258000 10.991300 29.975000 # H 
523 1 1 0.000000 -6.346000 10.991300 33.547001 # H 
524 1 1 0.000000 -1.287000 6.585260 29.975000 # H 
525 1 1 0.000000 -2.544000 8.763260 33.547001 # H 
526 1 1 0.000000 0.362000 6.585260 32.220001 # H 
527 1 1 0.000000 -1.720000 10.191300 28.648001 # H 
528 1 1 0.000000 -5.884000 10.191300 32.220001 # H 
529 1 1 0.000000 -0.363000 6.585260 28.648001 # H 
530 1 1 0.000000 -2.082000 9.564260 32.220001 # H 
531 1 2 0.000000 1.318000 6.585260 32.541000 # O 
532 1 2 0.000000 -1.242000 11.019300 28.969999 # O 
533 1 2 0.000000 -6.362000 11.019300 32.541000 # O 
534 1 2 0.000000 -1.318000 6.585260 28.969999 # O 
535 1 2 0.000000 -2.560000 8.736260 32.541000 # O 
536 1 2 0.000000 1.221000 6.585260 35.212002 # O 
537 1 2 0.000000 -1.291000 10.935300 31.639999 # O 
538 1 2 0.000000 -6.313000 10.935300 35.212002 # O 
539 1 2 0.000000 -1.221000 6.585260 31.639999 # O 
540 1 2 0.000000 -2.512000 8.820260 35.212002 # O 
541 1 1 0.000000 -4.149000 8.799260 39.134998 # H 
542 1 1 0.000000 -5.060000 8.763260 37.118000 # H 
543 1 1 0.000000 -5.522000 9.564260 35.791000 # H 
544 1 2 0.000000 -5.044000 8.736260 36.112999 # O 
545 1 2 0.000000 -5.092000 8.820260 38.783001 # O 
546 1 1 0.000000 1.710000 7.391260 42.707001 # H 
547 1 1 0.000000 -1.744000 11.762300 39.134998 # H 
548 1 1 0.000000 0.347000 10.955300 42.707001 # H 
549 1 1 0.000000 -5.512000 12.364300 39.134998 # H 
550 1 1 0.000000 -2.058000 7.993260 42.707001 # H 
551 1 1 0.000000 -1.711000 7.391260 39.134998 # H 
552 1 1 0.000000 -3.455000 8.799260 42.707001 # H 
553 1 1 0.000000 2.058000 7.993260 39.134998 # H 
554 1 1 0.000000 -2.092000 12.364300 42.707001 # H 
555 1 1 0.000000 -0.348000 10.955300 39.134998 # H 
556 1 1 0.000000 -5.860000 11.762300 42.707001 # H 
557 1 1 0.000000 1.286000 6.585260 40.689999 # H 
558 1 1 0.000000 -1.258000 10.991300 37.118000 # H 
559 1 1 0.000000 -6.346000 10.991300 40.689999 # H 
560 1 1 0.000000 -1.287000 6.585260 37.118000 # H 
561 1 1 0.000000 -2.544000 8.763260 40.689999 # H 
562 1 1 0.000000 0.362000 6.585260 39.362999 # H 
563 1 1 0.000000 -1.720000 10.191300 35.791000 # H 
564 1 1 0.000000 -5.884000 10.191300 39.362999 # H 
565 1 1 0.000000 -0.363000 6.585260 35.791000 # H 
566 1 1 0.000000 -2.082000 9.564260 39.362999 # H 
567 1 2 0.000000 1.318000 6.585260 39.683998 # O 
568 1 2 0.000000 -1.242000 11.019300 36.112999 # O 
569 1 2 0.000000 -6.362000 11.019300 39.683998 # O 
570 1 2 0.000000 -1.318000 6.585260 36.112999 # O 
571 1 2 0.000000 -2.560000 8.736260 39.683998 # O 
572 1 2 0.000000 1.221000 6.585260 42.355000 # O 
573 1 2 0.000000 -1.291000 10.935300 38.783001 # O 
574 1 2 0.000000 -6.313000 10.935300 42.355000 # O 
575 1 2 0.000000 -1.221000 6.585260 38.783001 # O 
576 1 2 0.000000 -2.512000 8.820260 42.355000 # O 
577 1 1 0.000000 -4.149000 8.799260 46.278000 # H 
578 1 1 0.000000 -5.060000 8.763260 44.261002 # H 
579 1 1 0.000000 -5.522000 9.564260 42.933998 # H 
580 1 2 0.000000 -5.044000 8.736260 43.256001 # O 
581 1 2 0.000000 -5.092000 8.820260 45.925999 # O 
582 1 1 0.000000 1.710000 7.391260 49.849998 # H 
583 1 1 0.000000 -1.744000 11.762300 46.278000 # H 
584 1 1 0.000000 0.347000 10.955300 49.849998 # H 
585 1 1 0.000000 -5.512000 12.364300 46.278000 # H 