ITEM: TIMESTEP
0
ITEM: NUMBER OF ATOMS
4500
ITEM: BOX BOUNDS xy xz yz pp pp pp
-3.1281000000000002e+01 2.5749001000000000e+01 -1.9010000000000002e+01
-6.6314300000000004e-01 3.2263142000000002e+01 0.0000000000000000e+00
-5.2498999999999997e-02 3.5662500999999999e+01 0.0000000000000000e+00
ITEM: ATOMS id type x y z
1 1 -0.347 2.214 3.42
2 1 -1.258 2.178 1.403
3 1 -1.72 2.979 0.076
4 2 -1.242 2.151 0.398
5 2 -1.29 2.235 3.068
6 1 5.512 0.806 6.992
7 1 2.058 5.177 3.42
8 1 4.149 4.37 6.992
9 1 -1.71 5.779 3.42
10 1 1.744 1.408 6.992
11 1 2.091 0.806 3.42
12 1 0.347 2.214 6.992
13 1 5.86 1.408 3.42
14 1 1.71 5.779 6.992
15 1 3.454 4.37 3.42
16 1 -2.058 5.177 6.992
17 1 5.088 0 4.975
18 1 2.544 4.406 1.403
19 1 -2.544 4.406 4.975
20 1 2.515 0 1.403
21 1 1.258 2.178 4.975
22 1 4.164 0 3.648
23 1 2.082 3.606 0.076
24 1 -2.082 3.606 3.648
25 1 3.439 0 0.076
26 1 1.72 2.979 3.648
27 2 5.12 0 3.969
28 2 2.56 4.434 0.398
29 2 -2.56 4.434 3.969
30 2 2.484 0 0.398
31 2 1.242 2.151 3.969
32 2 5.023 0 6.64
33 2 2.511 4.35 3.068
34 2 -2.511 4.35 6.64
35 2 2.581 0 3.068
36 2 1.29 2.235 6.64
37 1 -0.347 2.214 10.563
38 1 -1.258 2.178 8.546
39 1 -1.72 2.979 7.219
40 2 -1.242 2.151 7.541
41 2 -1.29 2.235 10.211
42 1 5.512 0.806 14.135
43 1 2.058 5.177 10.563
44 1 4.149 4.37 14.135
45 1 -1.71 5.779 10.563
46 1 1.744 1.408 14.135
47 1 2.091 0.806 10.563
48 1 0.347 2.214 14.135
49 1 5.86 1.408 10.563
50 1 1.71 5.779 14.135
51 1 3.454 4.37 10.563
52 1 -2.058 5.177 14.135
53 1 5.088 0 12.118
54 1 2.544 4.406 8.546
55 1 -2.544 4.406 12.118
56 1 2.515 0 8.546
57 1 1.258 2.178 12.118
58 1 4.164 0 10.791
59 1 2.082 3.606 7.219
60 1 -2.082 3.606 10.791
61 1 3.439 0 7.219
62 1 1.72 2.979 10.791
63 2 5.12 0 11.112
64 2 2.56 4.434 7.541
65 2 -2.56 4.434 11.112
66 2 2.484 0 7.541
67 2 1.242 2.151 11.112
68 2 5.023 0 13.783
69 2 2.511 4.35 10.211
70 2 -2.511 4.35 13.783
71 2 2.581 0 10.211
72 2 1.29 2.235 13.783
73 1 -0.347 2.214 17.706
74 1 -1.258 2.178 15.689
75 1 -1.72 2.979 14.362
76 2 -1.242 2.151 14.684
77 2 -1.29 2.235 17.354
78 1 5.512 0.806 21.278
79 1 2.058 5.177 17.706
80 1 4.149 4.37 21.278
81 1 -1.71 5.779 17.706
82 1 1.744 1.408 21.278
83 1 2.091 0.806 17.706
84 1 0.347 2.214 21.278
85 1 5.86 1.408 17.706
86 1 1.71 5.779 21.278
87 1 3.454 4.37 17.706
88 1 -2.058 5.177 21.278
89 1 5.088 0 19.261
90 1 2.544 4.406 15.689
91 1 -2.544 4.406 19.261
92 1 2.515 0 15.689
93 1 1.258 2.178 19.261
94 1 4.164 0 17.934
95 1 2.082 3.606 14.362
96 1 -2.082 3.606 17.934
97 1 3.439 0 14.362
98 1 1.72 2.979 17.934
99 2 5.12 0 18.255
100 2 2.56 4.434 14.684
101 2 -2.56 4.434 18.255
102 2 2.484 0 14.684
103 2 1.242 2.151 18.255
104 2 5.023 0 20.926
105 2 2.511 4.35 17.354
106 2 -2.511 4.35 20.926
107 2 2.581 0 17.354
108 2 1.29 2.235 20.926
109 1 -0.347 2.214 24.849
110 1 -1.258 2.178 22.832
111 1 -1.72 2.979 21.505
112 2 -1.242 2.151 21.827
113 2 -1.29 2.235 24.497
114 1 5.512 0.806 28.421
115 1 2.058 5.177 24.849
116 1 4.149 4.37 28.421
117 1 -1.71 5.779 24.849
118 1 1.744 1.408 28.421
119 1 2.091 0.806 24.849
120 1 0.347 2.214 28.421
121 1 5.86 1.408 24.849
122 1 1.71 5.779 28.421
123 1 3.454 4.37 24.849
124 1 -2.058 5.177 28.421
125 1 5.088 0 26.404
126 1 2.544 4.406 22.832
127 1 -2.544 4.406 26.404
128 1 2.515 0 22.832
129 1 1.258 2.178 26.404
130 1 4.164 0 25.077
131 1 2.082 3.606 21.505
132 1 -2.082 3.606 25.077
133 1 3.439 0 21.505
134 1 1.72 2.979 25.077
135 2 5.12 0 25.398
136 2 2.56 4.434 21.827
137 2 -2.56 4.434 25.398
138 2 2.484 0 21.827
139 2 1.242 2.151 25.398
140 2 5.023 0 28.069
141 2 2.511 4.35 24.497
142 2 -2.511 4.35 28.069
143 2 2.581 0 24.497
144 2 1.29 2.235 28.069
145 1 -0.347 2.214 31.992
146 1 -1.258 2.178 29.975
147 1 -1.72 2.979 28.648
148 2 -1.242 2.151 28.97
149 2 -1.29 2.235 31.64
150 1 5.512 0.806 35.564
151 1 2.058 5.177 31.992
152 1 4.149 4.37 35.564
153 1 -1.71 5.779 31.992
154 1 1.744 1.408 35.564
155 1 2.091 0.806 31.992
156 1 0.347 2.214 35.564
157 1 5.86 1.408 31.992
158 1 1.71 5.779 35.564
159 1 3.454 4.37 31.992
160 1 -2.058 5.177 35.564
161 1 5.088 0 33.547
162 1 2.544 4.406 29.975
163 1 -2.544 4.406 33.547
164 1 2.515 0 29.975
165 1 1.258 2.178 33.547
166 1 4.164 0 32.22
167 1 2.082 3.606 28.648
168 1 -2.082 3.606 32.22
169 1 3.439 0 28.648
170 1 1.72 2.979 32.22
171 2 5.12 0 32.541
172 2 2.56 4.434 28.97
173 2 -2.56 4.434 32.541
174 2 2.484 0 28.97
175 2 1.242 2.151 32.541
176 2 5.023 0 35.212
177 2 2.511 4.35 31.64
178 2 -2.511 4.35 35.212
179 2 2.581 0 31.64
180 2 1.29 2.235 35.212
181 1 -4.149 8.79926 3.42
182 1 -5.06 8.76326 1.403
183 1 -5.522 9.56426 0.076
184 2 -5.044 8.73626 0.398
185 2 -5.092 8.82026 3.068
186 1 1.71 7.39126 6.992
187 1 -1.744 11.7623 3.42
188 1 0.347 10.9553 6.992
189 1 -5.512 12.3643 3.42
190 1 -2.058 7.99326 6.992
191 1 -1.711 7.39126 3.42
192 1 -3.455 8.79926 6.992
193 1 2.058 7.99326 3.42
194 1 -2.092 12.3643 6.992
195 1 -0.348 10.9553 3.42
196 1 -5.86 11.7623 6.992
197 1 1.286 6.58526 4.975
198 1 -1.258 10.9913 1.403
199 1 -6.346 10.9913 4.975
200 1 -1.287 6.58526 1.403
201 1 -2.544 8.76326 4.975
202 1 0.362 6.58526 3.648
203 1 -1.72 10.1913 0.076
204 1 -5.884 10.1913 3.648
205 1 -0.363 6.58526 0.076
206 1 -2.082 9.56426 3.648
207 2 1.318 6.58526 3.969
208 2 -1.242 11.0193 0.398
209 2 -6.362 11.0193 3.969
210 2 -1.318 6.58526 0.398
211 2 -2.56 8.73626 3.969
212 2 1.221 6.58526 6.64
213 2 -1.291 10.9353 3.068
214 2 -6.313 10.9353 6.64
215 2 -1.221 6.58526 3.068
216 2 -2.512 8.82026 6.64
217 1 -4.149 8.79926 10.563
218 1 -5.06 8.76326 8.546
219 1 -5.522 9.56426 7.219
220 2 -5.044 8.73626 7.541
221 2 -5.092 8.82026 10.211
222 1 1.71 7.39126 14.135
223 1 -1.744 11.7623 10.563
224 1 0.347 10.9553 14.135
225 1 -5.512 12.3643 10.563
226 1 -2.058 7.99326 14.135
227 1 -1.711 7.39126 10.563
228 1 -3.455 8.79926 14.135
229 1 2.058 7.99326 10.563
230 1 -2.092 12.3643 14.135
231 1 -0.348 10.9553 10.563
232 1 -5.86 11.7623 14.135
233 1 1.286 6.58526 12.118
234 1 -1.258 10.9913 8.546
235 1 -6.346 10.9913 12.118
236 1 -1.287 6.58526 8.546
237 1 -2.544 8.76326 12.118
238 1 0.362 6.58526 10.791
239 1 -1.72 10.1913 7.219
240 1 -5.884 10.1913 10.791
241 1 -0.363 6.58526 7.219
242 1 -2.082 9.56426 10.791
243 2 1.318 6.58526 11.112
244 2 -1.242 11.0193 7.541
245 2 -6.362 11.0193 11.112
246 2 -1.318 6.58526 7.541
247 2 -2.56 8.73626 11.112
248 2 1.221 6.58526 13.783
249 2 -1.291 10.9353 10.211
250 2 -6.313 10.9353 13.783
251 2 -1.221 6.58526 10.211
252 2 -2.512 8.82026 13.783
253 1 -4.149 8.79926 17.706
254 1 -5.06 8.76326 15.689
255 1 -5.522 9.56426 14.362
256 2 -5.044 8.73626 14.684
257 2 -5.092 8.82026 17.354
258 1 1.71 7.39126 21.278
259 1 -1.744 11.7623 17.706
260 1 0.347 10.9553 21.278
261 1 -5.512 12.3643 17.706
262 1 -2.058 7.99326 21.278
263 1 -1.711 7.39126 17.706
264 1 -3.455 8.79926 21.278
265 1 2.058 7.99326 17.706
266 1 -2.092 12.3643 21.278
267 1 -0.348 10.9553 17.706
268 1 -5.86 11.7623 21.278
269 1 1.286 6.58526 19.261
270 1 -1.258 10.9913 15.689
271 1 -6.346 10.9913 19.261
272 1 -1.287 6.58526 15.689
273 1 -2.544 8.76326 19.261
274 1 0.362 6.58526 17.934
275 1 -1.72 10.1913 14.362
276 1 -5.884 10.1913 17.934
277 1 -0.363 6.58526 14.362
278 1 -2.082 9.56426 17.934
279 2 1.318 6.58526 18.255
280 2 -1.242 11.0193 14.684
281 2 -6.362 11.0193 18.255
282 2 -1.318 6.58526 14.684
283 2 -2.56 8.73626 18.255
284 2 1.221 6.58526 20.926
285 2 -1.291 10.9353 17.354
286 2 -6.313 10.9353 20.926
287 2 -1.221 6.58526 17.354
288 2 -2.512 8.82026 20.926
289 1 -4.149 8.79926 24.849
290 1 -5.06 8.76326 22.832
291 1 -5.522 9.56426 21.505
292 2 -5.044 8.73626 21.827
293 2 -5.092 8.82026 24.497
294 1 1.71 7.39126 28.421
295 1 -1.744 11.7623 24.849
296 1 0.347 10.9553 28.421
297 1 -5.512 12.3643 24.849
298 1 -2.058 7.99326 28.421
299 1 -1.711 7.39126 24.849
300 1 -3.455 8.79926 28.421
301 1 2.058 7.99326 24.849
302 1 -2.092 12.3643 28.421
303 1 -0.348 10.9553 24.849
304 1 -5.86 11.7623 28.421
305 1 1.286 6.58526 26.404
306 1 -1.258 10.9913 22.832
307 1 -6.346 10.9913 26.404
308 1 -1.287 6.58526 22.832
309 1 -2.544 8.76326 26.404
310 1 0.362 6.58526 25.077
311 1 -1.72 10.1913 21.505
312 1 -5.884 10.1913 25.077
313 1 -0.363 6.58526 21.505
314 1 -2.082 9.56426 25.077
315 2 1.318 6.58526 25.398
316 2 -1.242 11.0193 21.827
317 2 -6.362 11.0193 25.398
318 2 -1.318 6.58526 21.827
319 2 -2.56 8.73626 25.398
320 2 1.221 6.58526 28.069
321 2 -1.291 10.9353 24.497
322 2 -6.313 10.9353 28.069
323 2 -1.221 6.58526 24.497
324 2 -2.512 8.82026 28.069
325 1 -4.149 8.79926 31.992
326 1 -5.06 8.76326 29.975
327 1 -5.522 9.56426 28.648
328 2 -5.044 8.73626 28.97
329 2 -5.092 8.82026 31.64
330 1 1.71 7.39126 35.564
331 1 -1.744 11.7623 31.992
332 1 0.347 10.9553 35.564
333 1 -5.512 12.3643 31.992
334 1 -2.058 7.99326 35.564
335 1 -1.711 7.39126 31.992
336 1 -3.455 8.79926 35.564
337 1 2.058 7.99326 31.992
338 1 -2.092 12.3643 35.564
339 1 -0.348 10.9553 31.992
340 1 -5.86 11.7623 35.564
341 1 1.286 6.58526 33.547
342 1 -1.258 10.9913 29.975
343 1 -6.346 10.9913 33.547
344 1 -1.287 6.58526 29.975
345 1 -2.544 8.76326 33.547
346 1 0.362 6.58526 32.22
347 1 -1.72 10.1913 28.648
348 1 -5.884 10.1913 32.22
349 1 -0.363 6.58526 28.648
350 1 -2.082 9.56426 32.22
351 2 1.318 6.58526 32.541
352 2 -1.242 11.0193 28.97
353 2 -6.362 11.0193 32.541
354 2 -1.318 6.58526 28.97
355 2 -2.56 8.73626 32.541
356 2 1.221 6.58526 35.212
357 2 -1.291 10.9353 31.64
358 2 -6.313 10.9353 35.212
359 2 -1.221 6.58526 31.64
360 2 -2.512 8.82026 35.212
361 1 -7.951 15.3845 3.42
362 1 -8.862 15.3485 1.403
363 1 -9.324 16.1495 0.076
364 2 -8.846 15.3215 0.398
365 2 -8.894 15.4055 3.068
366 1 -2.092 13.9765 6.992
367 1 -5.546 18.3475 3.42
368 1 -3.455 17.5405 6.992
369 1 -9.314 18.9495 3.42
370 1 -5.86 14.5785 6.992
371 1 -5.513 13.9765 3.42
372 1 -7.257 15.3845 6.992
373 1 -1.744 14.5785 3.42
374 1 -5.894 18.9495 6.992
375 1 -4.15 17.5405 3.42
376 1 -9.662 18.3475 6.992
377 1 -2.516 13.1705 4.975
378 1 -5.06 17.5765 1.403
379 1 -10.148 17.5765 4.975
380 1 -5.089 13.1705 1.403
381 1 -6.346 15.3485 4.975
382 1 -3.44 13.1705 3.648
383 1 -5.522 16.7765 0.076
384 1 -9.686 16.7765 3.648
385 1 -4.165 13.1705 0.076
386 1 -5.884 16.1495 3.648
387 2 -2.484 13.1705 3.969
388 2 -5.044 17.6045 0.398
389 2 -10.164 17.6045 3.969
390 2 -5.12 13.1705 0.398
391 2 -6.362 15.3215 3.969
392 2 -2.581 13.1705 6.64
393 2 -5.093 17.5205 3.068
394 2 -10.115 17.5205 6.64
395 2 -5.023 13.1705 3.068
396 2 -6.314 15.4055 6.64
397 1 -7.951 15.3845 10.563
398 1 -8.862 15.3485 8.546
399 1 -9.324 16.1495 7.219
400 2 -8.846 15.3215 7.541
401 2 -8.894 15.4055 10.211
402 1 -2.092 13.9765 14.135
403 1 -5.546 18.3475 10.563
404 1 -3.455 17.5405 14.135
405 1 -9.314 18.9495 10.563
406 1 -5.86 14.5785 14.135
407 1 -5.513 13.9765 10.563
408 1 -7.257 15.3845 14.135
409 1 -1.744 14.5785 10.563
410 1 -5.894 18.9495 14.135
411 1 -4.15 17.5405 10.563
412 1 -9.662 18.3475 14.135
413 1 -2.516 13.1705 12.118
414 1 -5.06 17.5765 8.546
415 1 -10.148 17.5765 12.118
416 1 -5.089 13.1705 8.546
417 1 -6.346 15.3485 12.118
418 1 -3.44 13.1705 10.791
419 1 -5.522 16.7765 7.219
420 1 -9.686 16.7765 10.791
421 1 -4.165 13.1705 7.219
422 1 -5.884 16.1495 10.791
423 2 -2.484 13.1705 11.112
424 2 -5.044 17.6045 7.541
425 2 -10.164 17.6045 11.112
426 2 -5.12 13.1705 7.541
427 2 -6.362 15.3215 11.112
428 2 -2.581 13.1705 13.783
429 2 -5.093 17.5205 10.211
430 2 -10.115 17.5205 13.783
431 2 -5.023 13.1705 10.211
432 2 -6.314 15.4055 13.783
433 1 -7.951 15.3845 17.706
434 1 -8.862 15.3485 15.689
435 1 -9.324 16.1495 14.362
436 2 -8.846 15.3215 14.684
437 2 -8.894 15.4055 17.354
438 1 -2.092 13.9765 21.278
439 1 -5.546 18.3475 17.706
440 1 -3.455 17.5405 21.278
441 1 -9.314 18.9495 17.706
442 1 -5.86 14.5785 21.278
443 1 -5.513 13.9765 17.706
444 1 -7.257 15.3845 21.278
445 1 -1.744 14.5785 17.706
446 1 -5.894 18.9495 21.278
447 1 -4.15 17.5405 17.706
448 1 -9.662 18.3475 21.278
449 1 -2.516 13.1705 19.261
450 1 -5.06 17.5765 15.689
451 1 -10.148 17.5765 19.261
452 1 -5.089 13.1705 15.689
453 1 -6.346 15.3485 19.261
454 1 -3.44 13.1705 17.934
455 1 -5.522 16.7765 14.362
456 1 -9.686 16.7765 17.934
457 1 -4.165 13.1705 14.362
458 1 -5.884 16.1495 17.934
459 2 -2.484 13.1705 18.255
460 2 -5.044 17.6045 14.684
461 2 -10.164 17.6045 18.255
462 2 -5.12 13.1705 14.684
463 2 -6.362 15.3215 18.255
464 2 -2.581 13.1705 20.926
465 2 -5.093 17.5205 17.354
466 2 -10.115 17.5205 20.926
467 2 -5.023 13.1705 17.354
468 2 -6.314 15.4055 20.926
469 1 -7.951 15.3845 24.849
470 1 -8.862 15.3485 22.832
471 1 -9.324 16.1495 21.505
472 2 -8.846 15.3215 21.827
473 2 -8.894 15.4055 24.497
474 1 -2.092 13.9765 28.421
475 1 -5.546 18.3475 24.849
476 1 -3.455 17.5405 28.421
477 1 -9.314 18.9495 24.849
478 1 -5.86 14.5785 28.421
479 1 -5.513 13.9765 24.849
480 1 -7.257 15.3845 28.421
481 1 -1.744 14.5785 24.849
482 1 -5.894 18.9495 28.421
483 1 -4.15 17.5405 24.849
484 1 -9.662 18.3475 28.421
485 1 -2.516 13.1705 26.404
486 1 -5.06 17.5765 22.832
487 1 -10.148 17.5765 26.404
488 1 -5.089 13.1705 22.832
489 1 -6.346 15.3485 26.404
490 1 -3.44 13.1705 25.077
491 1 -5.522 16.7765 21.505
492 1 -9.686 16.7765 25.077
493 1 -4.165 13.1705 21.505
494 1 -5.884 16.1495 25.077
495 2 -2.484 13.1705 25.398
496 2 -5.044 17.6045 21.827
497 2 -10.164 17.6045 25.398
498 2 -5.12 13.1705 21.827
499 2 -6.362 15.3215 25.398
500 2 -2.581 13.1705 28.069
501 2 -5.093 17.5205 24.497
502 2 -10.115 17.5205 28.069
503 2 -5.023 13.1705 24.497
504 2 -6.314 15.4055 28.069
505 1 -7.951 15.3845 31.992
506 1 -8.862 15.3485 29.975
507 1 -9.324 16.1495 28.648
508 2 -8.846 15.3215 28.97
509 2 -8.894 15.4055 31.64
510 1 -2.092 13.9765 35.564
511 1 -5.546 18.3475 31.992
512 1 -3.455 17.5405 35.564
513 1 -9.314 18.9495 31.992
514 1 -5.86 14.5785 35.564
515 1 -5.513 13.9765 31.992
516 1 -7.257 15.3845 35.564
517 1 -1.744 14.5785 31.992
518 1 -5.894 18.9495 35.564
519 1 -4.15 17.5405 31.992
520 1 -9.662 18.3475 35.564
521 1 -2.516 13.1705 33.547
522 1 -5.06 17.5765 29.975
523 1 -10.148 17.5765 33.547
524 1 -5.089 13.1705 29.975
525 1 -6.346 15.3485 33.547
526 1 -3.44 13.1705 32.22
527 1 -5.522 16.7765 28.648
528 1 -9.686 16.7765 32.22
529 1 -4.165 13.1705 28.648
530 1 -5.884 16.1495 32.22
531 2 -2.484 13.1705 32.541
532 2 -5.044 17.6045 28.97
533 2 -10.164 17.6045 32.541
534 2 -5.12 13.1705 28.97
535 2 -6.362 15.3215 32.541
536 2 -2.581 13.1705 35.212
537 2 -5.093 17.5205 31.64
538 2 -10.115 17.5205 35.212
539 2 -5.023 13.1705 31.64
540 2 -6.314 15.4055 35.212
541 1 -11.753 21.9698 3.42
542 1 -12.664 21.9338 1.403
543 1 -13.126 22.7348 0.076
544 2 -12.648 21.9068 0.398
545 2 -12.696 21.9908 3.068
546 1 -5.894 20.5618 6.992
547 1 -9.348 24.9328 3.42
548 1 -7.257 24.1258 6.992
549 1 -13.116 25.5348 3.42
550 1 -9.662 21.1638 6.992
551 1 -9.315 20.5618 3.42
552 1 -11.059 21.9698 6.992
553 1 -5.546 21.1638 3.42
554 1 -9.696 25.5348 6.992
555 1 -7.952 24.1258 3.42
556 1 -13.464 24.9328 6.992
557 1 -6.318 19.7558 4.975
558 1 -8.862 24.1618 1.403
559 1 -13.95 24.1618 4.975
560 1 -8.891 19.7558 1.403
561 1 -10.148 21.9338 4.975
562 1 -7.242 19.7558 3.648
563 1 -9.324 23.3618 0.076
564 1 -13.488 23.3618 3.648
565 1 -7.967 19.7558 0.076
566 1 -9.686 22.7348 3.648
567 2 -6.286 19.7558 3.969
568 2 -8.846 24.1898 0.398
569 2 -13.966 24.1898 3.969
570 2 -8.922 19.7558 0.398
571 2 -10.164 21.9068 3.969
572 2 -6.383 19.7558 6.64
573 2 -8.895 24.1058 3.068
574 2 -13.917 24.1058 6.64
575 2 -8.825 19.7558 3.068
576 2 -10.116 21.9908 6.64
577 1 -11.753 21.9698 10.563
578 1 -12.664 21.9338 8.546
579 1 -13.126 22.7348 7.219
580 2 -12.648 21.9068 7.541
581 2 -12.696 21.9908 10.211
582 1 -5.894 20.5618 14.135
583 1 -9.348 24.9328 10.563
584 1 -7.257 24.1258 14.135
585 1 -13.116 25.5348 10.563
586 1 -9.662 21.1638 14.135
587 1 -9.315 20.5618 10.563
588 1 -11.059 21.9698 14.135
589 1 -5.546 21.1638 10.563
590 1 -9.696 25.5348 14.135
591 1 -7.952 24.1258 10.563
592 1 -13.464 24.9328 14.135
593 1 -6.318 19.7558 12.118
594 1 -8.862 24.1618 8.546
595 1 -13.95 24.1618 12.118
596 1 -8.891 19.7558 8.546
597 1 -10.148 21.9338 12.118
598 1 -7.242 19.7558 10.791
599 1 -9.324 23.3618 7.219
600 1 -13.488 23.3618 10.791
601 1 -7.967 19.7558 7.219
602 1 -9.686 22.7348 10.791
603 2 -6.286 19.7558 11.112
604 2 -8.846 24.1898 7.541
605 2 -13.966 24.1898 11.112
606 2 -8.922 19.7558 7.541
607 2 -10.164 21.9068 11.112
608 2 -6.383 19.7558 13.783
609 2 -8.895 24.1058 10.211
610 2 -13.917 24.1058 13.783
611 2 -8.825 19.7558 10.211
612 2 -10.116 21.9908 13.783
613 1 -11.753 21.9698 17.706
614 1 -12.664 21.9338 15.689
615 1 -13.126 22.7348 14.362
616 2 -12.648 21.9068 14.684
617 2 -12.696 21.9908 17.354
618 1 -5.894 20.5618 21.278
619 1 -9.348 24.9328 17.706
620 1 -7.257 24.1258 21.278
621 1 -13.116 25.5348 17.706
622 1 -9.662 21.1638 21.278
623 1 -9.315 20.5618 17.706
624 1 -11.059 21.9698 21.278
625 1 -5.546 21.1638 17.706
626 1 -9.696 25.5348 21.278
627 1 -7.952 24.1258 17.706
628 1 -13.464 24.9328 21.278
629 1 -6.318 19.7558 19.261
630 1 -8.862 24.1618 15.689
631 1 -13.95 24.1618 19.261
632 1 -8.891 19.7558 15.689
633 1 -10.148 21.9338 19.261
634 1 -7.242 19.7558 17.934
635 1 -9.324 23.3618 14.362
636 1 -13.488 23.3618 17.934
637 1 -7.967 19.7558 14.362
638 1 -9.686 22.7348 17.934
639 2 -6.286 19.7558 18.255
640 2 -8.846 24.1898 14.684
641 2 -13.966 24.1898 18.255
642 2 -8.922 19.7558 14.684
643 2 -10.164 21.9068 18.255
644 2 -6.383 19.7558 20.926
645 2 -8.895 24.1058 17.354
646 2 -13.917 24.1058 20.926
647 2 -8.825 19.7558 17.354
648 2 -10.116 21.9908 20.926
649 1 -11.753 21.9698 24.849
650 1 -12.664 21.9338 22.832
651 1 -13.126 22.7348 21.505
652 2 -12.648 21.9068 21.827
653 2 -12.696 21.9908 24.497
654 1 -5.894 20.5618 28.421
655 1 -9.348 24.9328 24.849
656 1 -7.257 24.1258 28.421
657 1 -13.116 25.5348 24.849
658 1 -9.662 21.1638 28.421
659 1 -9.315 20.5618 24.849
660 1 -11.059 21.9698 28.421
661 1 -5.546 21.1638 24.849
662 1 -9.696 25.5348 28.421
663 1 -7.952 24.1258 24.849
664 1 -13.464 24.9328 28.421
665 1 -6.318 19.7558 26.404
666 1 -8.862 24.1618 22.832
667 1 -13.95 24.1618 26.404
668 1 -8.891 19.7558 22.832
669 1 -10.148 21.9338 26.404
670 1 -7.242 19.7558 25.077
671 1 -9.324 23.3618 21.505
672 1 -13.488 23.3618 25.077
673 1 -7.967 19.7558 21.505
674 1 -9.686 22.7348 25.077
675 2 -6.286 19.7558 25.398
676 2 -8.846 24.1898 21.827
677 2 -13.966 24.1898 25.398
678 2 -8.922 19.7558 21.827
679 2 -10.164 21.9068 25.398
680 2 -6.383 19.7558 28.069
681 2 -8.895 24.1058 24.497
682 2 -13.917 24.1058 28.069
683 2 -8.825 19.7558 24.497
684 2 -10.116 21.9908 28.069
685 1 -11.753 21.9698 31.992
686 1 -12.664 21.9338 29.975
687 1 -13.126 22.7348 28.648
688 2 -12.648 21.9068 28.97
689 2 -12.696 21.9908 31.64
690 1 -5.894 20.5618 35.564
691 1 -9.348 24.9328 31.992
692 1 -7.257 24.1258 35.564
693 1 -13.116 25.5348 31.992
694 1 -9.662 21.1638 35.564
695 1 -9.315 20.5618 31.992
696 1 -11.059 21.9698 35.564
697 1 -5.546 21.1638 31.992
698 1 -9.696 25.5348 35.564
699 1 -7.952 24.1258 31.992
700 1 -13.464 24.9328 35.564
701 1 -6.318 19.7558 33.547
702 1 -8.862 24.1618 29.975
703 1 -13.95 24.1618 33.547
704 1 -8.891 19.7558 29.975
705 1 -10.148 21.9338 33.547
706 1 -7.242 19.7558 32.22
707 1 -9.324 23.3618 28.648
708 1 -13.488 23.3618 32.22
709 1 -7.967 19.7558 28.648
710 1 -9.686 22.7348 32.22
711 2 -6.286 19.7558 32.541
712 2 -8.846 24.1898 28.97
713 2 -13.966 24.1898 32.541
714 2 -8.922 19.7558 28.97
715 2 -10.164 21.9068 32.541
716 2 -6.383 19.7558 35.212
717 2 -8.895 24.1058 31.64
718 2 -13.917 24.1058 35.212
719 2 -8.825 19.7558 31.64
720 2 -10.116 21.9908 35.212
721 1 -15.555 28.555 3.42
722 1 -16.466 28.519 1.403
723 1 -16.928 29.32 0.076
724 2 -16.45 28.492 0.398
725 2 -16.498 28.576 3.068
726 1 -9.696 27.147 6.992
727 1 -13.15 31.518 3.42
728 1 -11.059 30.711 6.992
729 1 -16.918 32.12 3.42
730 1 -13.464 27.749 6.992
731 1 -13.117 27.147 3.42
732 1 -14.861 28.555 6.992
733 1 -9.348 27.749 3.42
734 1 -13.498 32.12 6.992
735 1 -11.754 30.711 3.42
736 1 -17.266 31.518 6.992
737 1 -10.12 26.341 4.975
738 1 -12.664 30.747 1.403
739 1 -17.752 30.747 4.975
740 1 -12.693 26.341 1.403
741 1 -13.95 28.519 4.975
742 1 -11.044 26.341 3.648
743 1 -13.126 29.947 0.076
744 1 -17.29 29.947 3.648
745 1 -11.769 26.341 0.076
746 1 -13.488 29.32 3.648
747 2 -10.088 26.341 3.969
748 2 -12.648 30.775 0.398
749 2 -17.768 30.775 3.969
750 2 -12.724 26.341 0.398
751 2 -13.966 28.492 3.969
752 2 -10.185 26.341 6.64
753 2 -12.697 30.691 3.068
754 2 -17.719 30.691 6.64
755 2 -12.627 26.341 3.068
756 2 -13.918 28.576 6.64
757 1 -15.555 28.555 10.563
758 1 -16.466 28.519 8.546
759 1 -16.928 29.32 7.219
760 2 -16.45 28.492 7.541
761 2 -16.498 28.576 10.211
762 1 -9.696 27.147 14.135
763 1 -13.15 31.518 10.563
764 1 -11.059 30.711 14.135
765 1 -16.918 32.12 10.563
766 1 -13.464 27.749 14.135
767 1 -13.117 27.147 10.563
768 1 -14.861 28.555 14.135
769 1 -9.348 27.749 10.563
770 1 -13.498 32.12 14.135
771 1 -11.754 30.711 10.563
772 1 -17.266 31.518 14.135
773 1 -10.12 26.341 12.118
774 1 -12.664 30.747 8.546
775 1 -17.752 30.747 12.118
776 1 -12.693 26.341 8.546
777 1 -13.95 28.519 12.118
778 1 -11.044 26.341 10.791
779 1 -13.126 29.947 7.219
780 1 -17.29 29.947 10.791
781 1 -11.769 26.341 7.219
782 1 -13.488 29.32 10.791
783 2 -10.088 26.341 11.112
784 2 -12.648 30.775 7.541
785 2 -17.768 30.775 11.112
786 2 -12.724 26.341 7.541
787 2 -13.966 28.492 11.112
788 2 -10.185 26.341 13.783
789 2 -12.697 30.691 10.211
790 2 -17.719 30.691 13.783
791 2 -12.627 26.341 10.211
792 2 -13.918 28.576 13.783
793 1 -15.555 28.555 17.706
794 1 -16.466 28.519 15.689
795 1 -16.928 29.32 14.362
796 2 -16.45 28.492 14.684
797 2 -16.498 28.576 17.354
798 1 -9.696 27.147 21.278
799 1 -13.15 31.518 17.706
800 1 -11.059 30.711 21.278
801 1 -16.918 32.12 17.706
802 1 -13.464 27.749 21.278
803 1 -13.117 27.147 17.706
804 1 -14.861 28.555 21.278
805 1 -9.348 27.749 17.706
806 1 -13.498 32.12 21.278
807 1 -11.754 30.711 17.706
808 1 -17.266 31.518 21.278
809 1 -10.12 26.341 19.261
810 1 -12.664 30.747 15.689
811 1 -17.752 30.747 19.261
812 1 -12.693 26.341 15.689
813 1 -13.95 28.519 19.261
814 1 -11.044 26.341 17.934
815 1 -13.126 29.947 14.362
816 1 -17.29 29.947 17.934
817 1 -11.769 26.341 14.362
818 1 -13.488 29.32 17.934
819 2 -10.088 26.341 18.255
820 2 -12.648 30.775 14.684
821 2 -17.768 30.775 18.255
822 2 -12.724 26.341 14.684
823 2 -13.966 28.492 18.255
824 2 -10.185 26.341 20.926
825 2 -12.697 30.691 17.354
826 2 -17.719 30.691 20.926
827 2 -12.627 26.341 17.354
828 2 -13.918 28.576 20.926
829 1 -15.555 28.555 24.849
830 1 -16.466 28.519 22.832
831 1 -16.928 29.32 21.505
832 2 -16.45 28.492 21.827
833 2 -16.498 28.576 24.497
834 1 -9.696 27.147 28.421
835 1 -13.15 31.518 24.849
836 1 -11.059 30.711 28.421
837 1 -16.918 32.12 24.849
838 1 -13.464 27.749 28.421
839 1 -13.117 27.147 24.849
840 1 -14.861 28.555 28.421
841 1 -9.348 27.749 24.849
842 1 -13.498 32.12 28.421
843 1 -11.754 30.711 24.849
844 1 -17.266 31.518 28.421
845 1 -10.12 26.341 26.404
846 1 -12.664 30.747 22.832
847 1 -17.752 30.747 26.404
848 1 -12.693 26.341 22.832
849 1 -13.95 28.519 26.404
850 1 -11.044 26.341 25.077
851 1 -13.126 29.947 21.505
852 1 -17.29 29.947 25.077
853 1 -11.769 26.341 21.505
854 1 -13.488 29.32 25.077
855 2 -10.088 26.341 25.398
856 2 -12.648 30.775 21.827
857 2 -17.768 30.775 25.398
858 2 -12.724 26.341 21.827
859 2 -13.966 28.492 25.398
860 2 -10.185 26.341 28.069
861 2 -12.697 30.691 24.497
862 2 -17.719 30.691 28.069
863 2 -12.627 26.341 24.497
864 2 -13.918 28.576 28.069
865 1 -15.555 28.555 31.992
866 1 -16.466 28.519 29.975
867 1 -16.928 29.32 28.648
868 2 -16.45 28.492 28.97
869 2 -16.498 28.576 31.64
870 1 -9.696 27.147 35.564
871 1 -13.15 31.518 31.992
872 1 -11.059 30.711 35.564
873 1 -16.918 32.12 31.992
874 1 -13.464 27.749 35.564
875 1 -13.117 27.147 31.992
876 1 -14.861 28.555 35.564
877 1 -9.348 27.749 31.992
878 1 -13.498 32.12 35.564
879 1 -11.754 30.711 31.992
880 1 -17.266 31.518 35.564
881 1 -10.12 26.341 33.547
882 1 -12.664 30.747 29.975
883 1 -17.752 30.747 33.547
884 1 -12.693 26.341 29.975
885 1 -13.95 28.519 33.547
886 1 -11.044 26.341 32.22
887 1 -13.126 29.947 28.648
888 1 -17.29 29.947 32.22
889 1 -11.769 26.341 28.648
890 1 -13.488 29.32 32.22
891 2 -10.088 26.341 32.541
892 2 -12.648 30.775 28.97
893 2 -17.768 30.775 32.541
894 2 -12.724 26.341 28.97
895 2 -13.966 28.492 32.541
896 2 -10.185 26.341 35.212
897 2 -12.697 30.691 31.64
898 2 -17.719 30.691 35.212
899 2 -12.627 26.341 31.64
900 2 -13.918 28.576 35.212
901 1 7.257 2.214 3.42
902 1 6.346 2.178 1.403
903 1 5.884 2.979 0.076
904 2 6.362 2.151 0.398
905 2 6.314 2.235 3.068
906 1 13.116 0.806 6.992
907 1 9.662 5.177 3.42
908 1 11.753 4.37 6.992
909 1 5.894 5.779 3.42
910 1 9.348 1.408 6.992
911 1 9.695 0.806 3.42
912 1 7.951 2.214 6.992
913 1 13.464 1.408 3.42
914 1 9.314 5.779 6.992
915 1 11.058 4.37 3.42
916 1 5.546 5.177 6.992
917 1 12.692 0 4.975
918 1 10.148 4.406 1.403
919 1 5.06 4.406 4.975
920 1 10.119 0 1.403
921 1 8.862 2.178 4.975
922 1 11.768 0 3.648
923 1 9.686 3.606 0.076
924 1 5.522 3.606 3.648
925 1 11.043 0 0.076
926 1 9.324 2.979 3.648
927 2 12.724 0 3.969
928 2 10.164 4.434 0.398
929 2 5.044 4.434 3.969
930 2 10.088 0 0.398
931 2 8.846 2.151 3.969
932 2 12.627 0 6.64
933 2 10.115 4.35 3.068
934 2 5.093 4.35 6.64
935 2 10.185 0 3.068
936 2 8.894 2.235 6.64
937 1 7.257 2.214 10.563
938 1 6.346 2.178 8.546
939 1 5.884 2.979 7.219
940 2 6.362 2.151 7.541
941 2 6.314 2.235 10.211
942 1 13.116 0.806 14.135
943 1 9.662 5.177 10.563
944 1 11.753 4.37 14.135
945 1 5.894 5.779 10.563
946 1 9.348 1.408 14.135
947 1 9.695 0.806 10.563
948 1 7.951 2.214 14.135
949 1 13.464 1.408 10.563
950 1 9.314 5.779 14.135
951 1 11.058 4.37 10.563
952 1 5.546 5.177 14.135
953 1 12.692 0 12.118
954 1 10.148 4.406 8.546
955 1 5.06 4.406 12.118
956 1 10.119 0 8.546
957 1 8.862 2.178 12.118
958 1 11.768 0 10.791
959 1 9.686 3.606 7.219
960 1 5.522 3.606 10.791
961 1 11.043 0 7.219
962 1 9.324 2.979 10.791
963 2 12.724 0 11.112
964 2 10.164 4.434 7.541
965 2 5.044 4.434 11.112
966 2 10.088 0 7.541
967 2 8.846 2.151 11.112
968 2 12.627 0 13.783
969 2 10.115 4.35 10.211
970 2 5.093 4.35 13.783
971 2 10.185 0 10.211
972 2 8.894 2.235 13.783
973 1 7.257 2.214 17.706
974 1 6.346 2.178 15.689
975 1 5.884 2.979 14.362
976 2 6.362 2.151 14.684
977 2 6.314 2.235 17.354
978 1 13.116 0.806 21.278
979 1 9.662 5.177 17.706
980 1 11.753 4.37 21.278
981 1 5.894 5.779 17.706
982 1 9.348 1.408 21.278
983 1 9.695 0.806 17.706
984 1 7.951 2.214 21.278
985 1 13.464 1.408 17.706
986 1 9.314 5.779 21.278
987 1 11.058 4.37 17.706
988 1 5.546 5.177 21.278
989 1 12.692 0 19.261
990 1 10.148 4.406 15.689
991 1 5.06 4.406 19.261
992 1 10.119 0 15.689
993 1 8.862 2.178 19.261
994 1 11.768 0 17.934
995 1 9.686 3.606 14.362
996 1 5.522 3.606 17.934
997 1 11.043 0 14.362
998 1 9.324 2.979 17.934
999 2 12.724 0 18.255
1000 2 10.164 4.434 14.684
1001 2 5.044 4.434 18.255
1002 2 10.088 0 14.684
1003 2 8.846 2.151 18.255
1004 2 12.627 0 20.926
1005 2 10.115 4.35 17.354
1006 2 5.093 4.35 20.926
1007 2 10.185 0 17.354
1008 2 8.894 2.235 20.926
1009 1 7.257 2.214 24.849
1010 1 6.346 2.178 22.832
1011 1 5.884 2.979 21.505
1012 2 6.362 2.151 21.827
1013 2 6.314 2.235 24.497
1014 1 13.116 0.806 28.421
1015 1 9.662 5.177 24.849
1016 1 11.753 4.37 28.421
1017 1 5.894 5.779 24.849
1018 1 9.348 1.408 28.421
1019 1 9.695 0.806 24.849
1020 1 7.951 2.214 28.421
1021 1 13.464 1.408 24.849
1022 1 9.314 5.779 28.421
1023 1 11.058 4.37 24.849
1024 1 5.546 5.177 28.421
1025 1 12.692 0 26.404
1026 1 10.148 4.406 22.832
1027 1 5.06 4.406 26.404
1028 1 10.119 0 22.832
1029 1 8.862 2.178 26.404
1030 1 11.768 0 25.077
1031 1 9.686 3.606 21.505
1032 1 5.522 3.606 25.077
1033 1 11.043 0 21.505
1034 1 9.324 2.979 25.077
1035 2 12.724 0 25.398
1036 2 10.164 4.434 21.827
1037 2 5.044 4.434 25.398
1038 2 10.088 0 21.827
1039 2 8.846 2.151 25.398
1040 2 12.627 0 28.069
1041 2 10.115 4.35 24.497
1042 2 5.093 4.35 28.069
1043 2 10.185 0 24.497
1044 2 8.894 2.235 28.069
1045 1 7.257 2.214 31.992
1046 1 6.346 2.178 29.975
1047 1 5.884 2.979 28.648
1048 2 6.362 2.151 28.97
1049 2 6.314 2.235 31.64
1050 1 13.116 0.806 35.564
1051 1 9.662 5.177 31.992
1052 1 11.753 4.37 35.564
1053 1 5.894 5.779 31.992
1054 1 9.348 1.408 35.564
1055 1 9.695 0.806 31.992
1056 1 7.951 2.214 35.564
1057 1 13.464 1.408 31.992
1058 1 9.314 5.779 35.564
1059 1 11.058 4.37 31.992
1060 1 5.546 5.177 35.564
1061 1 12.692 0 33.547
1062 1 10.148 4.406 29.975
1063 1 5.06 4.406 33.547
1064 1 10.119 0 29.975
1065 1 8.862 2.178 33.547
1066 1 11.768 0 32.22
1067 1 9.686 3.606 28.648
1068 1 5.522 3.606 32.22
1069 1 11.043 0 28.648
1070 1 9.324 2.979 32.22
1071 2 12.724 0 32.541
1072 2 10.164 4.434 28.97
1073 2 5.044 4.434 32.541
1074 2 10.088 0 28.97
1075 2 8.846 2.151 32.541
1076 2 12.627 0 35.212
1077 2 10.115 4.35 31.64
1078 2 5.093 4.35 35.212
1079 2 10.185 0 31.64
1080 2 8.894 2.235 35.212
1081 1 3.455 8.79926 3.42
1082 1 2.544 8.76326 1.403
1083 1 2.082 9.56426 0.076
1084 2 2.56 8.73626 0.398
1085 2 2.512 8.82026 3.068
1086 1 9.314 7.39126 6.992
1087 1 5.86 11.7623 3.42
1088 1 7.951 10.9553 6.992
1089 1 2.092 12.3643 3.42
1090 1 5.546 7.99326 6.992
1091 1 5.893 7.39126 3.42
1092 1 4.149 8.79926 6.992
1093 1 9.662 7.99326 3.42
1094 1 5.512 12.3643 6.992
1095 1 7.256 10.9553 3.42
1096 1 1.744 11.7623 6.992
1097 1 8.89 6.58526 4.975
1098 1 6.346 10.9913 1.403
1099 1 1.258 10.9913 4.975
1100 1 6.317 6.58526 1.403
1101 1 5.06 8.76326 4.975
1102 1 7.966 6.58526 3.648
1103 1 5.884 10.1913 0.076
1104 1 1.72 10.1913 3.648
1105 1 7.241 6.58526 0.076
1106 1 5.522 9.56426 3.648
1107 2 8.922 6.58526 3.969
1108 2 6.362 11.0193 0.398
1109 2 1.242 11.0193 3.969
1110 2 6.286 6.58526 0.398
1111 2 5.044 8.73626 3.969
1112 2 8.825 6.58526 6.64
1113 2 6.313 10.9353 3.068
1114 2 1.291 10.9353 6.64
1115 2 6.383 6.58526 3.068
1116 2 5.092 8.82026 6.64
1117 1 3.455 8.79926 10.563
1118 1 2.544 8.76326 8.546
1119 1 2.082 9.56426 7.219
1120 2 2.56 8.73626 7.541
1121 2 2.512 8.82026 10.211
1122 1 9.314 7.39126 14.135
1123 1 5.86 11.7623 10.563
1124 1 7.951 10.9553 14.135
1125 1 2.092 12.3643 10.563
1126 1 5.546 7.99326 14.135
1127 1 5.893 7.39126 10.563