LAMMPS data file via write_data, version 29 Sep 2021, timestep = 70000

8640 atoms
2 atom types
5760 bonds
1 bond types
2880 angles
1 angle types

-0.07939913943650723 43.488013019436394 xlo xhi
1.0853996099880305 46.361949120010294 ylo yhi
0.8428638397500272 43.530011580248924 zlo zhi

Masses

1 1.00794
2 15.9994

Atoms # full

1 1 2 -0.84759998 0.3795907554503318 3.2920036440051077 4.584908002432758 0 0 0
2 1 1 0.42379999 0.47152853964513647 4.160472329187573 4.1930643771244105 0 0 0
3 1 1 0.42379999 0.45283091638360545 3.4448012888800497 5.526991119013848 0 0 0
109 37 2 -0.84759998 4.872928770611963 3.1983244279163574 4.634985121169002 0 0 0
110 37 1 0.42379999 5.099317705003984 4.0718051125205985 4.3155929108567435 0 0 0
111 37 1 0.42379999 4.903507862772319 3.2760786588733235 5.588531679387813 0 0 0
1081 361 2 -0.84759998 2.5494786443544837 6.825197818835667 4.799986942862227 0 0 0
1082 361 1 0.42379999 2.677447630206227 7.7087213219496 4.454672596063023 0 0 0
1083 361 1 0.42379999 2.5811418755442217 6.93217239382656 5.750663396812857 0 0 0
2161 721 2 -0.84759998 0.7777367762303126 5.867102729779208 1.0658138620857411 0 0 0
2163 721 1 0.42379999 0.6324987586189691 5.836356120488446 2.011431334564676 0 0 0
2271 757 1 0.42379999 5.042347646070024 5.747016641041392 2.0844351087411885 0 0 0
3243 1081 1 0.42379999 2.5757222361533896 1.7044641104282752 1.8916989748057491 0 0 0
4321 1441 2 -0.84759998 2.6463224108284367 1.879620793601979 3.7519426875001862 0 0 0
4322 1441 1 0.42379999 3.459974288254735 2.3158777783760196 4.004692179283103 0 0 0
4323 1441 1 0.42379999 1.9545056562690437 2.4362105291499905 4.109474901983726 0 0 0
4431 1477 1 0.42379999 6.30105567292533 2.500446758843433 4.026623330101212 0 0 0
5401 1801 2 -0.84759998 0.4380088786015727 5.736909593456887 3.633645196733877 0 0 0
5402 1801 1 0.42379999 1.1574499488698904 6.111897284761567 4.141602495904943 0 0 0
5509 1837 2 -0.84759998 4.982974227550099 5.719108626015086 3.7417098829220166 0 0 0
5510 1837 1 0.42379999 5.71201118397505 6.211723789226851 4.11862798694528 0 0 0
5511 1837 1 0.42379999 4.201013489794704 6.1181286721085595 4.123222985481551 0 0 0
2269 757 2 -0.84759998 4.9565729153921225 5.873852937254343 1.1395609956763242 0 0 0
3241 1081 2 -0.84759998 2.789867050590073 1.758110216902057 0.96030435719725 0 0 0
3349 1117 2 -0.84759998 7.057907817986862 2.0339275271644084 0.9734877848872162 0 0 0
4429 1477 2 -0.84759998 7.04738396355405 2.0760492092431257 3.6034063142565413 0 0 0
3351 1117 1 0.42379999 6.943692594359847 2.0163246075476318 1.9236861115079256 0 0 0
1190 397 1 0.42379999 7.397550518550441 7.8314759349237955 4.2720713881140915 0 0 0
1189 397 2 -0.84759998 7.303157829605527 6.959573180558626 4.655617274813689 0 0 0
1191 397 1 0.42379999 7.288762258154051 7.113225894188646 5.600294707124166 0 0 0
217 73 2 -0.84759998 9.35345652801324 3.1076092387505523 4.59414413601876 0 0 0
218 73 1 0.42379999 9.426317229537016 4.02317406039074 4.32458112752458 0 0 0
219 73 1 0.42379999 9.287022340564514 3.142944686576385 5.548381918159551 0 0 0
325 109 2 -0.84759998 13.59254188970253 3.0060067986545276 4.68377120564035 0 0 0
326 109 1 0.42379999 13.600737225782789 3.9298500474912657 4.433414803594561 0 0 0
327 109 1 0.42379999 13.694363990575745 3.014365396361341 5.6355034335375365 0 0 0
1297 433 2 -0.84759998 11.453634847648939 7.085104566980311 4.81037690525946 0 0 0
1298 433 1 0.42379999 11.515842930169505 7.990152873174654 4.505008999408393 0 0 0
1299 433 1 0.42379999 11.448628474993301 7.153760553544132 5.765098399592641 0 0 0
2377 793 2 -0.84759998 9.318626381930155 5.716292603096892 1.271770562188604 0 0 0
2379 793 1 0.42379999 9.37714848617867 5.557118455117553 2.2138271390083712 0 0 0
2487 829 1 0.42379999 13.71309173949636 5.714310107173344 2.3494905283293 0 0 0
3459 1153 1 0.42379999 11.573446972929526 1.7397606296051689 1.9733798391741464 0 0 0
4430 1477 1 0.42379999 7.814623937125719 2.4926301859243685 3.9958791831545666 0 0 0
4537 1513 2 -0.84759998 11.50960596689571 1.5796349166268437 3.7213627460930687 0 0 0
4538 1513 1 0.42379999 12.249312204050934 2.04602897628137 4.110648121919892 0 0 0
4539 1513 1 0.42379999 10.736399530858568 2.032770163183104 4.057594950974063 0 0 0
5617 1873 2 -0.84759998 9.528291003235726 5.648015224622143 3.8533861976123736 0 0 0
5618 1873 1 0.42379999 10.227140444369725 6.207707253924598 4.191891930151713 0 0 0
5619 1873 1 0.42379999 8.724602092961218 6.023753554150937 4.212742125940662 0 0 0
5725 1909 2 -0.84759998 13.575576607705576 5.53650348511806 4.101624701883895 0 0 0
5727 1909 1 0.42379999 12.823568759508417 6.07111714227809 4.356387873923842 0 0 0
2485 829 2 -0.84759998 13.753698860696288 5.8894086985727965 1.4093185307683314 0 0 0
3457 1153 2 -0.84759998 11.550518038450779 1.8412442119611947 1.0218509712590118 0 0 0
5726 1909 1 0.42379999 14.33298174482417 6.005083120984816 4.452341714755162 0 0 0
2486 829 1 0.42379999 13.646368960461052 5.0306276040480205 1.0004088045422077 0 0 0
2378 793 1 0.42379999 9.306429148851329 4.84255224659951 0.8810521764770425 0 0 0
6714 2238 1 0.42379999 12.291034538101234 6.632008038398982 0.9742919945911387 0 0 1
6713 2238 1 0.42379999 10.779107819412186 6.603339566227412 0.902522169484984 0 0 1
433 145 2 -0.84759998 18.2096108914773 3.096874096058294 4.775024374588758 0 0 0
434 145 1 0.42379999 18.107685289205868 3.9762542680019397 4.410972833191157 0 0 0
435 145 1 0.42379999 18.196944131342104 3.2267496413097696 5.723287911762529 0 0 0
1405 469 2 -0.84759998 15.896921682255588 6.79403257435246 4.794010090517333 0 0 0
1406 469 1 0.42379999 15.815778141529542 7.696782044353398 4.48629112748212 0 0 0
1407 469 1 0.42379999 15.955264609224002 6.869470400095368 5.746447530625575 0 0 0
1513 505 2 -0.84759998 20.0626794585174 6.779744048200216 4.668220432000286 0 0 0
1514 505 1 0.42379999 20.136161986576862 7.660271996557157 4.300113531450585 0 0 0
1515 505 1 0.42379999 20.208079955568103 6.899082927923049 5.6067558693940525 0 0 0
2595 865 1 0.42379999 18.20866044320723 5.62837925827437 2.0771102676045055 0 0 0
3565 1189 2 -0.84759998 15.640595240565105 2.064292451641043 1.1951545897203428 0 0 0
3567 1189 1 0.42379999 15.801514827799826 1.990633908171399 2.135851748968811 0 0 0
3673 1225 2 -0.84759998 20.344040500569992 2.050634652958219 1.1323276347767033 0 0 0
3675 1225 1 0.42379999 20.57371286490904 2.1465569804728566 2.056601053275302 0 0 0
4645 1549 2 -0.84759998 16.03658601903441 1.8931237383075026 3.7817220900292976 0 0 0
4646 1549 1 0.42379999 16.802759271596667 2.3080288902354895 4.178035226276114 0 0 0
4647 1549 1 0.42379999 15.295011311952262 2.413203972486257 4.091262626684193 0 0 0
4753 1585 2 -0.84759998 20.38025100855498 1.8672818589931737 3.846557744095822 0 0 0
4754 1585 1 0.42379999 21.09708378481947 2.3675166094328075 4.2366190281596685 0 0 0
4755 1585 1 0.42379999 19.586472941045365 2.2937411461842108 4.169482961304415 0 0 0
5833 1945 2 -0.84759998 17.94488786349452 5.547172376416395 3.6956725651945286 0 0 0
5834 1945 1 0.42379999 18.72716134910184 6.046452282001665 3.930192520836976 0 0 0
5835 1945 1 0.42379999 17.21520107383472 6.090867691526836 3.9926312042723193 0 0 0
2593 865 2 -0.84759998 18.277322395027724 5.750673902144083 1.1302410071186766 0 0 0
5943 1981 1 0.42379999 21.611299584137342 6.15094460059782 3.806573329694043 0 0 0
6821 2274 1 0.42379999 15.32969905806252 6.637925391245839 0.8883079134664699 0 0 1
3584 1195 1 0.42379999 16.14417230099594 8.533622983346717 0.9810828296168387 0 0 0
3566 1189 1 0.42379999 15.837635894397419 1.1938621088872912 0.8490941338012642 0 0 0
3674 1225 1 0.42379999 20.38318701944859 1.1077842953662358 0.9719138160192263 0 0 0
19 7 2 -0.84759998 0.7492409683892546 10.72574736363773 4.6524022461250505 0 0 0
20 7 1 0.42379999 0.7771015202358273 11.584866290804547 4.231248712797187 0 0 0
21 7 1 0.42379999 0.6382651037420469 10.91836574872007 5.583430900460714 0 0 0
127 43 2 -0.84759998 5.117290527278036 10.621075046564364 4.8103886282728725 0 0 0
128 43 1 0.42379999 5.233319631902476 11.500926389562316 4.451737403397294 0 0 0
129 43 1 0.42379999 4.957970169766188 10.761458955714087 5.743738092157724 0 0 0
1099 367 2 -0.84759998 3.111229490319537 14.324124660967556 4.811887796012413 0 0 0
1100 367 1 0.42379999 2.8349872161467533 15.145996232199048 4.406364471946671 0 0 0
1101 367 1 0.42379999 3.0827051994503494 14.499153993627656 5.75251680765248 0 0 0
2181 727 1 0.42379999 0.617838278779775 13.23000039400641 1.9287776129495873 0 0 0
2289 763 1 0.42379999 5.278184825475758 13.253473265069195 2.1422184225392873 0 0 0
3261 1087 1 0.42379999 3.1967882062401904 9.562420100030202 2.1668044353209983 0 0 0
4339 1447 2 -0.84759998 2.955860440268135 9.212401935263227 3.8668039879603784 0 0 0
4340 1447 1 0.42379999 3.7128617168047326 9.733972911195604 4.133533484617402 0 0 0
4341 1447 1 0.42379999 2.1989759131577866 9.731020330771184 4.139554079549172 0 0 0
4449 1483 1 0.42379999 6.622579218123129 9.935085065109984 4.045778403390949 0 0 0
5419 1807 2 -0.84759998 0.614851126665423 13.16208972609059 3.657416719585605 0 0 0
5420 1807 1 0.42379999 1.33211068367429 13.553599744878534 4.15590490707665 0 0 0
5527 1843 2 -0.84759998 5.400428279354814 13.169971183142868 3.8175082538534024 0 0 0
5528 1843 1 0.42379999 6.1047930092766025 13.59452904088969 4.307255936510131 0 0 0
5529 1843 1 0.42379999 4.604191708002958 13.61474478291289 4.1080518949634035 0 0 0
2287 763 2 -0.84759998 5.109056840797048 13.37615832286586 1.2081006883151975 0 0 0
3259 1087 2 -0.84759998 3.1874699695738196 9.715201436029188 1.2219219697011758 0 0 0
2179 727 2 -0.84759998 0.6613481930940728 13.247563418277545 0.9727283111168762 0 0 0
1207 403 2 -0.84759998 7.542790280770742 14.353318655915395 5.090307943956687 0 0 0
1208 403 1 0.42379999 7.399594015933183 15.205561961358752 4.678715890992159 0 0 0
4447 1483 2 -0.84759998 7.4192082987989005 9.607900086583552 3.6279699094031734 0 0 0
3369 1123 1 0.42379999 7.382112791844108 9.690449866907572 2.005521476801446 0 0 0
1209 403 1 0.42379999 7.506227191640877 14.531491288428887 6.030068282307106 0 0 0
3367 1123 2 -0.84759998 7.4056265960382595 9.711645379414804 1.0488450993038754 0 0 0
235 79 2 -0.84759998 9.62482020027896 10.860910206004485 4.6756546262032 0 0 0
236 79 1 0.42379999 9.494795834812518 11.792961755419359 4.500710596243952 0 0 0
237 79 1 0.42379999 9.587490346228352 10.788248933145383 5.629362475296965 0 0 0
343 115 2 -0.84759998 13.751269792413257 10.768168246885242 4.821088918083407 0 0 0
344 115 1 0.42379999 13.735632655292571 11.644922836807583 4.437306806732736 0 0 0
345 115 1 0.42379999 13.749133753720706 10.91982532177844 5.766196006710692 0 0 0
1315 439 2 -0.84759998 11.819172915108652 14.52581629976567 4.75172361496935 0 0 0
1316 439 1 0.42379999 11.65141818880011 15.424136239549691 4.466922846733763 0 0 0
1317 439 1 0.42379999 11.732022186472475 14.555881585145558 5.704473670919603 0 0 0
2397 799 1 0.42379999 9.546400034126641 13.265798523430107 2.1231839598048046 0 0 0
2505 835 1 0.42379999 13.824094865486362 13.19537318338629 1.8985934585989925 0 0 0
3477 1159 1 0.42379999 11.900566600525142 9.571212772684742 1.9952459533673255 0 0 0
4448 1483 1 0.42379999 8.121384553751223 10.142922060903492 3.998012925789003 0 0 0
4555 1519 2 -0.84759998 11.664627053304233 9.523390491959395 3.766415191203414 0 0 0
4556 1519 1 0.42379999 12.402379749960634 9.940108543472869 4.211722797380336 0 0 0
4557 1519 1 0.42379999 10.891087700219545 9.958597148566298 4.1248337667186386 0 0 0
5635 1879 2 -0.84759998 9.70211896998622 13.304005225814427 3.769571975900398 0 0 0
5636 1879 1 0.42379999 10.508261341129776 13.772092613772811 3.98696681181271 0 0 0
5637 1879 1 0.42379999 9.03304520673989 13.70935052744467 4.321176295845122 0 0 0
5743 1915 2 -0.84759998 13.841105174664552 13.296132016969395 3.7773280254502657 0 0 0
5745 1915 1 0.42379999 13.099640734547867 13.76022905502593 4.16601332657394 0 0 0
2503 835 2 -0.84759998 13.846634148634497 13.220076934288533 0.9419777858199354 0 0 0
3475 1159 2 -0.84759998 11.830342441643428 9.61343215605206 1.0415594581408074 0 0 0
2395 799 2 -0.84759998 9.4579228406461 13.315796720124977 1.1713941686423508 0 0 0
2396 799 1 0.42379999 9.544979710786851 12.410021337907681 0.8743690883369882 0 0 0
5744 1915 1 0.42379999 14.611796160347618 13.767484299430826 4.09370481095335 0 0 0
451 151 2 -0.84759998 18.109209719855556 10.59862650476039 4.676799620719965 0 0 0
452 151 1 0.42379999 18.06711714780697 11.470747819953083 4.284544006400803 0 0 0
453 151 1 0.42379999 18.181744716036107 10.761700034426033 5.617213113951254 0 0 0
1423 475 2 -0.84759998 16.037622909664034 14.449290436957076 4.6558333800942755 0 0 0
1424 475 1 0.42379999 16.00486879507286 15.361086574625345 4.366373864253843 0 0 0
1425 475 1 0.42379999 16.00277624271455 14.499356824848276 5.611087747582873 0 0 0
1531 511 2 -0.84759998 20.323969315669498 14.223005583862786 4.508025409873608 0 0 0
1532 511 1 0.42379999 20.393073482339894 15.136097023676928 4.229241485145284 0 0 0
1533 511 1 0.42379999 20.23045745476542 14.26901616348119 5.459534946574862 0 0 0
2611 871 2 -0.84759998 18.13133990477705 13.386548399450037 1.0064325314559297 0 0 0
2613 871 1 0.42379999 18.007959328024693 13.290293655030439 1.9507545620455868 0 0 0
3585 1195 1 0.42379999 16.10072007740234 9.359053479877941 2.249417009334173 0 0 0
3691 1231 2 -0.84759998 20.338218396431838 9.536930371784415 1.2071649345289883 0 0 0
3693 1231 1 0.42379999 20.26030422616012 9.35741364565822 2.1441467737936573 0 0 0
4663 1555 2 -0.84759998 15.90084556847147 9.382727356817458 3.9325794475904106 0 0 0
4664 1555 1 0.42379999 16.64742445621742 9.900195365843702 4.234371866326264 0 0 0
4665 1555 1 0.42379999 15.134788636059803 9.848342298737323 4.26812578144758 0 0 0
4771 1591 2 -0.84759998 20.18277651908861 9.258910824758171 3.754373262676957 0 0 0
4772 1591 1 0.42379999 20.89858108309038 9.798549697963043 4.090000366291084 0 0 0
4773 1591 1 0.42379999 19.39019533397066 9.75027503281292 3.9702624009858583 0 0 0
5851 1951 2 -0.84759998 18.092907711982146 13.075093973791255 3.7234385261608485 0 0 0
5852 1951 1 0.42379999 18.888795039682645 13.452685651985675 4.097897771158329 0 0 0
5853 1951 1 0.42379999 17.390453656760887 13.654275843741756 4.018969407497887 0 0 0
3583 1195 2 -0.84759998 16.17459054053869 9.436254508397493 1.2981993707931585 0 0 0
37 13 2 -0.84759998 0.5760827216041583 18.265503645560628 4.829230737415788 0 0 0
38 13 1 0.42379999 0.7213465963480977 19.15898532965143 4.518070446104951 0 0 0
39 13 1 0.42379999 0.7374930873329701 18.31036474851049 5.771656339401119 0 0 0
145 49 2 -0.84759998 5.108882664942502 17.99360165263537 4.543371569730936 0 0 0
146 49 1 0.42379999 5.077160792131973 18.90292062267551 4.246109776843705 0 0 0
147 49 1 0.42379999 5.166849115297083 18.054700661631294 5.496859189856654 0 0 0
1117 373 2 -0.84759998 3.0525622748680847 22.073798521691064 4.7374912022711895 0 0 0
1118 373 1 0.42379999 2.981297103966686 22.8977328824025 4.255531365090303 0 0 0
1119 373 1 0.42379999 2.9684893627225235 22.325662933902088 5.6571258597874 0 0 0
2199 733 1 0.42379999 0.659724898352858 20.913738381059304 2.0280428559310697 0 0 0
2305 769 2 -0.84759998 5.096054372181006 20.74910195318124 1.166864070022451 0 0 0
2307 769 1 0.42379999 5.105623241685361 20.5450430852356 2.102011253704867 0 0 0
3279 1093 1 0.42379999 2.7030033123925823 16.80577423182135 2.1486645690137416 0 0 0
4357 1453 2 -0.84759998 2.814537986262054 16.739215127378877 3.8621630703995224 0 0 0
4358 1453 1 0.42379999 3.6566956255933243 17.13011115195689 4.094977692975271 0 0 0
4359 1453 1 0.42379999 2.1632870389218013 17.32258536519592 4.251756716674344 0 0 0
4467 1489 1 0.42379999 6.610880134089559 17.111422409406757 4.101834412491006 0 0 0
5437 1813 2 -0.84759998 0.8734621929475919 20.758559550125803 3.803388257495292 0 0 0
5438 1813 1 0.42379999 1.6372738660387907 21.19634853324438 4.179106734961636 0 0 0
5545 1849 2 -0.84759998 5.0718917752856765 20.536360160364545 3.8319884419343038 0 0 0
5546 1849 1 0.42379999 5.837596437901944 21.06972020624447 4.0451908600882165 0 0 0
5547 1849 1 0.42379999 4.323868386784936 21.090607118999554 4.054481495982544 0 0 0
3277 1093 2 -0.84759998 2.6919446620132406 17.023220089922525 1.2165557529163773 0 0 0
2197 733 2 -0.84759998 0.780059713582459 21.01994192086137 1.084394520809787 0 0 0
3385 1129 2 -0.84759998 7.06122929601471 16.975037848791157 1.1476915852450777 0 0 0
5439 1813 1 0.42379999 0.1235702247318778 21.198884910122036 4.203397574073984 0 0 0
1226 409 1 0.42379999 7.242731462828636 22.88039745802133 4.342168617726443 0 0 0
1225 409 2 -0.84759998 7.210342188056232 21.995344922420315 4.705300527789339 0 0 0
1227 409 1 0.42379999 7.184259842299923 22.12567779536007 5.653227156527617 0 0 0
3404 1135 1 0.42379999 7.541040070149054 23.68134939482659 0.8452091249640687 0 0 0
4465 1489 2 -0.84759998 7.410882296495254 16.691287890412887 3.7860570128943882 0 0 0
3387 1129 1 0.42379999 7.23584109360081 16.7692484104266 2.066056037519527 0 0 0
253 85 2 -0.84759998 9.407877344837896 18.276686193322604 4.649045064077331 0 0 0
254 85 1 0.42379999 9.426065946490924 19.16588883985894 4.295181152152596 0 0 0
255 85 1 0.42379999 9.444511170440837 18.39530428683783 5.598160204991491 0 0 0
361 121 2 -0.84759998 13.608725201386509 18.19750491512738 4.674125467526848 0 0 0
362 121 1 0.42379999 13.7510529989409 19.083690988828177 4.341486202222708 0 0 0
363 121 1 0.42379999 13.592297328404474 18.2981742208557 5.6258752539063694 0 0 0
1333 445 2 -0.84759998 11.585611983217348 22.044619049307418 4.588890623951359 0 0 0
1334 445 1 0.42379999 11.519488648141621 22.930092762203632 4.23140517204002 0 0 0
1335 445 1 0.42379999 11.528157378897308 22.163643124528825 5.5369223101096425 0 0 0
2413 805 2 -0.84759998 9.554480477374941 20.829172142957663 1.1962626043460771 0 0 0
2415 805 1 0.42379999 9.575961733718394 20.788909061543823 2.1523741459043673 0 0 0
2521 841 2 -0.84759998 13.784191057890764 20.82834853693923 1.1145023506159326 0 0 0
2523 841 1 0.42379999 13.815089277753374 20.715007181131188 2.0644659694313674 0 0 0
3495 1165 1 0.42379999 11.421135097781727 16.94106432252762 1.7900109864877018 0 0 0
4466 1489 1 0.42379999 8.11677129631482 17.265751453149672 4.082610844468849 0 0 0
4573 1525 2 -0.84759998 11.542964190537699 16.98570383162418 3.5788097076246883 0 0 0
4574 1525 1 0.42379999 12.304767139419361 17.42432335464157 3.957624993883307 0 0 0
4575 1525 1 0.42379999 10.791185958000998 17.45228149855492 3.944003642138196 0 0 0
5653 1885 2 -0.84759998 9.462172923977356 20.764515242674896 3.793223858473545 0 0 0
5654 1885 1 0.42379999 10.27153909369235 21.201298665812487 4.058513293983303 0 0 0
5655 1885 1 0.42379999 8.764547611885877 21.327917741381157 4.128079630979873 0 0 0
5761 1921 2 -0.84759998 13.81539187676319 20.743120878875956 3.7804512647681494 0 0 0
5763 1921 1 0.42379999 13.093380251495951 21.260843219155706 4.13667399194066 0 0 0
2414 805 1 0.42379999 9.506750706612404 19.91438778443105 0.918551808052506 0 0 0
5762 1921 1 0.42379999 14.604752571107712 21.193762590718123 4.080557215678654 0 0 0
469 157 2 -0.84759998 18.1337509071487 18.266728411993544 4.76160601789404 0 0 0
470 157 1 0.42379999 18.12413886560322 19.132007020031086 4.352420999681076 0 0 0
471 157 1 0.42379999 18.03623899468401 18.442705979373333 5.697423928978547 0 0 0
1441 481 2 -0.84759998 16.089615541588483 21.943160027665773 4.7442455179226695 0 0 0
1442 481 1 0.42379999 15.978223701210707 22.84599474795457 4.446397963394692 0 0 0
1443 481 1 0.42379999 15.9691408494418 21.986798195136974 5.692830463455708 0 0 0
1549 517 2 -0.84759998 20.421251822810362 22.049066553471327 4.6886173433035525 0 0 0
1550 517 1 0.42379999 20.35018030992199 22.960017743514197 4.403400567122275 0 0 0
1551 517 1 0.42379999 20.473242107515475 22.099784631646163 5.643057769334708 0 0 0
2629 877 2 -0.84759998 17.95498074863854 20.720871945991775 1.2615971590392052 0 0 0
2631 877 1 0.42379999 17.98301385284746 20.58783950924777 2.209092993247655 0 0 0
3601 1201 2 -0.84759998 15.794262090171744 16.981791154259938 1.205148197380881 0 0 0
3603 1201 1 0.42379999 15.797035000679045 16.83383188081661 2.150839586983981 0 0 0
3709 1237 2 -0.84759998 20.49653214487927 17.20667148791981 1.2843460926053278 0 0 0
3711 1237 1 0.42379999 20.399422918334853 17.030488766727334 2.2201672757771767 0 0 0
4681 1561 2 -0.84759998 16.02451437865368 16.948833359665027 3.8733281069208543 0 0 0
4682 1561 1 0.42379999 16.75578382109113 17.480768846580396 4.187209422575887 0 0 0
4683 1561 1 0.42379999 15.255945073636562 17.31573611506804 4.3102668113900044 0 0 0
4789 1597 2 -0.84759998 20.197518155677226 16.80643671919164 3.8479613605913117 0 0 0
4790 1597 1 0.42379999 21.000902574269624 17.235923683795345 4.141808707352264 0 0 0
4791 1597 1 0.42379999 19.493964818611893 17.29637993554021 4.273637512916361 0 0 0
5869 1957 2 -0.84759998 18.216928477887276 20.72035270874639 3.9006061951758535 0 0 0
5870 1957 1 0.42379999 18.999628649689164 21.262194774067655 4.000703434446885 0 0 0
5871 1957 1 0.42379999 17.498574104047375 21.279365814887907 4.196753423336269 0 0 0
3620 1207 1 0.42379999 16.140160503083703 23.715859536213358 0.8754647434508251 0 0 0
3710 1237 1 0.42379999 20.428843333028585 16.34650034241028 0.8699119420059002 0 0 0
2630 877 1 0.42379999 17.91776273359419 19.836963539647584 0.8961486831219632 0 0 0
3728 1243 1 0.42379999 20.36889497950706 23.72069092652287 1.0286787037423994 0 0 0
4 2 2 -0.84759998 0.614529971244327 3.2824661186606545 11.93912686266163 0 0 0
5 2 1 0.42379999 0.557427124363547 4.185546292475595 11.62700940954424 0 0 0
6 2 1 0.42379999 0.6361645952797552 3.359139164147895 12.893005800021376 0 0 0
112 38 2 -0.84759998 5.082781437545645 3.3271088715908825 11.65256181421888 0 0 0
113 38 1 0.42379999 4.973762898387155 4.215855663469238 11.31421888456661 0 0 0
114 38 1 0.42379999 5.123126682965471 3.435326846254 12.60276861862086 0 0 0
1084 362 2 -0.84759998 2.7158404767299507 6.939978695193661 11.787121804081153 0 0 0
1085 362 1 0.42379999 2.7041129308540177 7.868266969963167 11.553936934089164 0 0 0
2164 722 2 -0.84759998 0.5064772397620728 5.7490479567354225 8.249402321265535 0 0 0
2165 722 1 0.42379999 0.6725520158135943 4.870664523751544 7.907212968101392 0 0 0
2166 722 1 0.42379999 0.5383741776926548 5.646078188591255 9.20051306781348 0 0 0
2272 758 2 -0.84759998 4.800257850204718 5.789177952383426 8.103559419305123 0 0 0
2273 758 1 0.42379999 4.820194357801723 4.895726791514784 7.760660893779988 0 0 0
2274 758 1 0.42379999 4.740924292325202 5.680678512425036 9.052737611447185 0 0 0
3244 1082 2 -0.84759998 2.8684717828788417 2.102987666450371 8.110073863963745 0 0 0
3246 1082 1 0.42379999 2.7891898272531996 2.0527836274711015 9.062662844575184 0 0 0
4324 1442 2 -0.84759998 2.8368875081263 2.012040150581026 10.867009191441285 0 0 0
4325 1442 1 0.42379999 3.6459924089054963 2.4544754446056762 11.123586879747203 0 0 0
4326 1442 1 0.42379999 2.140526890091306 2.5390106438779654 11.258947743824566 0 0 0
4434 1478 1 0.42379999 6.557919730386666 2.523927466266732 11.260101776297176 0 0 0
5404 1802 2 -0.84759998 0.4455031488311806 5.7671469804645925 10.97429310216387 0 0 0
5405 1802 1 0.42379999 1.1380977913815444 6.3993457260025535 11.16630676639317 0 0 0
5512 1838 2 -0.84759998 4.865100127440174 5.890587268077888 10.754397710017562 0 0 0
5513 1838 1 0.42379999 5.63830027817497 6.312994263719559 11.128517606490158 0 0 0
5514 1838 1 0.42379999 4.125341756566349 6.3662702717256 11.13217419520794 0 0 0
6481 2161 2 -0.84759998 2.5625526626095017 7.2435366239626315 7.479800458251042 0 0 0
6482 2161 1 0.42379999 1.8423590993960564 6.681413727044675 7.765406691142562 0 0 0
6483 2161 1 0.42379999 3.353388735161989 6.755092472931377 7.708344672076538 0 0 0
6590 2197 1 0.42379999 6.225898794238969 6.589073971290036 7.468770261459351 0 0 0
7561 2521 2 -0.84759998 0.6430977491914839 3.338819033011393 7.229071390840695 0 0 0
7563 2521 1 0.42379999 1.4381942062127266 2.8621943218082677 7.467571597764724 0 0 0
7669 2557 2 -0.84759998 5.128139819732581 3.2151110816508655 7.217993528373922 0 0 0
7670 2557 1 0.42379999 4.379126556330681 2.7784033011194884 7.623576177992215 0 0 0
7671 2557 1 0.42379999 5.889645032990811 2.7294990531654655 7.535046533360209 0 0 0
1086 362 1 0.42379999 2.801638735884456 6.933074280499732 12.740443799937637 0 0 0
6589 2197 2 -0.84759998 7.049962343865256 7.042251707819735 7.290497870744626 0 0 0
1194 398 1 0.42379999 7.12399624529949 7.003638848963943 12.7426116947202 0 0 0
3371 1124 1 0.42379999 6.851961368569632 8.497685733943626 8.044981494167242 0 0 0
7562 2521 1 0.42379999 -0.05406525107617763 2.903111244837604 7.719330826632091 0 0 0
3245 1082 1 0.42379999 2.9204360218753225 1.190650149265208 7.825167190468846 0 0 0
3354 1118 1 0.42379999 7.25594133506386 1.9147432705735214 9.186772617767026 0 0 0
3352 1118 2 -0.84759998 7.323410046762575 1.981652241344997 8.234300569582924 0 0 0
1193 398 1 0.42379999 7.261011398080467 7.738507658369941 11.426142981590688 0 0 0
1192 398 2 -0.84759998 7.2625732169403685 6.860096488641652 11.806436575565696 0 0 0
4432 1478 2 -0.84759998 7.290205304105985 1.9909015489339081 10.95046804109691 0 0 0
220 74 2 -0.84759998 9.389011902222695 3.1480230757533683 11.895238868200176 0 0 0
221 74 1 0.42379999 9.43155644713079 4.024437909046783 11.512722408839483 0 0 0
222 74 1 0.42379999 9.467932120723253 3.2935625624290226 12.83801227519149 0 0 0
328 110 2 -0.84759998 13.690541399947719 3.1518983541865224 11.766779803337528 0 0 0
329 110 1 0.42379999 13.7237609854829 4.046253527092035 11.427284407442352 0 0 0
330 110 1 0.42379999 13.722528108754567 3.2548969157863303 12.717884417335418 0 0 0
1300 434 2 -0.84759998 11.663508238042665 6.975562802454968 11.989359559273066 0 0 0
1301 434 1 0.42379999 11.621003201555332 7.847319935595444 11.596339632689299 0 0 0
1302 434 1 0.42379999 11.664777542052489 7.137440284923212 12.932771404405973 0 0 0
2380 794 2 -0.84759998 9.406162099978022 5.623454216509811 8.383579077543803 0 0 0
2381 794 1 0.42379999 9.456833949574644 4.7643785979521915 7.96446896640557 0 0 0
2382 794 1 0.42379999 9.421922938662007 5.4340948687955635 9.321729637633819 0 0 0
2488 830 2 -0.84759998 13.647749122854853 5.640871590102551 8.214506550559822 0 0 0
2489 830 1 0.42379999 13.614916125302148 4.735675475823842 7.9050330800224735 0 0 0
2490 830 1 0.42379999 13.657626353455589 5.568002186066715 9.16887772063524 0 0 0
3460 1154 2 -0.84759998 11.60793121683097 1.8270281775591315 8.213411270692053 0 0 0
3462 1154 1 0.42379999 11.515816481749729 1.774632506176893 9.164726890873554 0 0 0
4433 1478 1 0.42379999 8.065134483668752 2.4021369855434886 11.333354476399476 0 0 0
4540 1514 2 -0.84759998 11.545815821962243 1.8381844664765081 10.883196718762408 0 0 0
4541 1514 1 0.42379999 12.282415645344532 2.4038673296749598 11.114833154749462 0 0 0
4542 1514 1 0.42379999 10.7854835546908 2.256966795768698 11.28661714960159 0 0 0
5620 1874 2 -0.84759998 9.447074155997157 5.582758397741253 11.072649227887577 0 0 0
5621 1874 1 0.42379999 10.211772715144091 6.095081661939065 11.33531408393098 0 0 0
5622 1874 1 0.42379999 8.699427596367345 6.081206214688197 11.402507130103867 0 0 0
5728 1910 2 -0.84759998 13.822091158164074 5.595078667748359 10.93015555271425 0 0 0
5730 1910 1 0.42379999 13.133901756815375 6.108876084267675 11.352813100439823 0 0 0
6591 2197 1 0.42379999 7.718936835828832 6.493957408089762 7.700471443046177 0 0 0
6697 2233 2 -0.84759998 11.387877163771842 7.04909654696234 7.504857530890097 0 0 0
6698 2233 1 0.42379999 10.659074504534836 6.521623373981977 7.83173759402503 0 0 0
6699 2233 1 0.42379999 12.169122334626806 6.542051721495718 7.725749739859358 0 0 0
7777 2593 2 -0.84759998 9.511576408447151 3.1884999874584485 7.221604223096442 0 0 0
7778 2593 1 0.42379999 8.820757040589722 2.6917381156658315 7.66004245560606 0 0 0
7779 2593 1 0.42379999 10.324285335524326 2.765966714481899 7.499456113636696 0 0 0
7885 2629 2 -0.84759998 13.748840641933453 2.981959139454622 7.3201098695402225 0 0 0
7886 2629 1 0.42379999 12.964126315831795 2.518734085312436 7.613159038837441 0 0 0
7887 2629 1 0.42379999 14.473147222200609 2.5130128518390844 7.734478301148258 0 0 0
5729 1910 1 0.42379999 14.63524393147373 6.0387819851963975 11.171281605525685 0 0 0
436 146 2 -0.84759998 18.210810158124367 3.14911855939983 11.717848220780738 0 0 0
437 146 1 0.42379999 18.252717029635924 4.02526403680912 11.334644937215264 0 0 0
438 146 1 0.42379999 18.01191059849902 3.300566783954175 12.641825623350833 0 0 0
1408 470 2 -0.84759998 16.093103170390215 6.863932016768265 11.8872369583663 0 0 0
1409 470 1 0.42379999 15.990339258072893 7.72797006345534 11.488351420645987 0 0 0
1410 470 1 0.42379999 15.998599575318693 7.020577310790777 12.826791726530006 0 0 0
1516 506 2 -0.84759998 20.418198254996124 6.893782575183723 11.786739000048119 0 0 0
1517 506 1 0.42379999 20.36035437842453 7.756142995834838 11.37537489024076 0 0 0
1518 506 1 0.42379999 20.324440377592314 7.0678698363322745 12.723293817413621 0 0 0
2596 866 2 -0.84759998 18.27225809417636 5.798580428241275 8.32970836016547 0 0 0
2597 866 1 0.42379999 18.338080847014073 4.935425223761326 7.921220541267471 0 0 0
2598 866 1 0.42379999 18.26643792658052 5.61930187757808 9.269951502613878 0 0 0
3568 1190 2 -0.84759998 15.981832641646282 1.902859837156665 8.411038990859796 0 0 0
3570 1190 1 0.42379999 15.888269489757326 1.7731421955395947 9.354782128615991 0 0 0
3676 1226 2 -0.84759998 20.21834440973885 1.8734039311292061 8.270084629150684 0 0 0
3678 1226 1 0.42379999 20.203811813405334 1.7434186233671443 9.218306366620254 0 0 0
4648 1550 2 -0.84759998 15.906436429472022 1.7345714401600723 11.13734447683419 0 0 0
4649 1550 1 0.42379999 16.66827761724465 2.3069839977932065 11.227753041014163 0 0 0
4650 1550 1 0.42379999 15.160351392818331 2.2908984230322553 11.361150746205258 0 0 0