LAMMPS data file via write_data, version 29 Sep 2021, timestep = 5000

8640 atoms
2 atom types
5760 bonds
1 bond types
2880 angles
1 angle types

-0.75694412 44.165558 xlo xhi
0.38127473 47.066074 ylo yhi
0.17900842 44.193867 zlo zhi

Masses

1 1.0079401
2 15.9994

Pair Coeffs # lj/cut/coul/long

1 0 0
2 0.102 3.188

Bond Coeffs # harmonic

1 450 0.9572

Angle Coeffs # harmonic

1 55 104.52

Atoms # full

1 1 2 -0.83 0.32197024971630983 2.6291464173885455 4.042796807188975 0 0 0
2 1 1 0.415 0.4940891897938388 3.562480514628966 3.9183204089856285 0 0 0
3 1 1 0.415 0.23878490582795173 2.5247753371969726 4.990646329196296 0 0 0
109 37 2 -0.83 4.267859857494514 2.41836452409106 4.4540950164493855 0 0 0
110 37 1 0.415 4.659541902708239 3.2693285242292793 4.257429599547842 0 0 0
111 37 1 0.415 4.330089105571105 2.33977500493681 5.4060314892610535 0 0 0
1081 361 2 -0.83 2.9754336551212135 6.813722015378533 3.899911039311803 0 0 0
1083 361 1 0.415 2.9766719544339404 6.895838410484537 4.853581427046922 0 0 0
2163 721 1 0.415 0.379047057486244 4.751321764493044 1.5662358673668642 0 0 0
2271 757 1 0.415 4.448723052669597 4.886209639338478 1.407804051040741 0 0 0
3241 1081 2 -0.83 1.8792543075695112 0.9215606099935149 0.2857754883447546 0 0 0
3243 1081 1 0.415 1.893938740803065 1.1019139482600149 1.2257163806144564 0 0 0
4321 1441 2 -0.83 2.478647491290726 1.3641135747865747 2.9578644012174844 0 0 0
4322 1441 1 0.415 3.217448774288453 1.5956885107558363 3.5206943527531758 0 0 0
4323 1441 1 0.415 1.7434041080772296 1.8672906445352682 3.307809889099723 0 0 0
5401 1801 2 -0.83 0.7781628375555283 5.193155374831476 3.3495084623086666 0 0 0
5402 1801 1 0.415 1.4487833073819207 5.87332555993127 3.4117061699662354 0 0 0
5509 1837 2 -0.83 4.949888319278255 4.849125738867965 3.5056264034476645 0 0 0
5511 1837 1 0.415 4.199043289065242 5.442373574573413 3.4828100454565742 0 0 0
5403 1801 1 0.415 -0.022137328036479175 5.616014860895279 3.6608625150479672 0 0 0
3242 1081 1 0.415 2.3797473067369066 46.796189412589335 0.18901593232834557 0 -1 0
7561 2521 2 -0.83 0.1500140629638821 2.4964681467095096 6.918347250016461 0 0 0
5510 1837 1 0.415 5.6816291320888475 5.398821479389243 3.7860222234271252 0 0 0
217 73 2 -0.83 8.66255770661322 2.1746633226808956 4.442080258815851 0 0 0
218 73 1 0.415 8.785445303810281 3.043700550353279 4.060105415116875 0 0 0
219 73 1 0.415 8.445648690204314 2.34396939965078 5.3588778243225095 0 0 0
1189 397 2 -0.83 7.114141163700868 6.44690207826013 4.211703300104111 0 0 0
1191 397 1 0.415 7.14677688552424 6.572891737925691 5.160014090662371 0 0 0
1297 433 2 -0.83 11.047526794568343 6.168655913095202 4.020376390309217 0 0 0
1299 433 1 0.415 11.09077018097931 6.410080921213305 4.945620042091818 0 0 0
2379 793 1 0.415 8.613137905972591 4.637695776041866 1.1791255656956678 0 0 0
3351 1117 1 0.415 6.7463127774912905 1.1007387017834402 1.3601356971126217 0 0 0
3459 1153 1 0.415 11.592380306712734 1.03337001217861 1.3149147617456987 0 0 0
4429 1477 2 -0.83 6.7129363326489795 0.9649006715460811 3.013213696506313 0 0 0
4430 1477 1 0.415 7.482015993468127 1.1935976815078375 3.535177290173004 0 0 0
4431 1477 1 0.415 6.083973472525884 1.6634993120161738 3.1937614746653042 0 0 0
4537 1513 2 -0.83 11.111531975085901 1.3990800012308284 3.1134488645328022 0 0 0
4539 1513 1 0.415 10.401853083766335 1.7608642472568683 3.6442029230290927 0 0 0
5617 1873 2 -0.83 8.764200190235751 4.787927180167452 2.940075474255903 0 0 0
5618 1873 1 0.415 9.506733178579786 5.0144186695368065 3.500056015627066 0 0 0
5619 1873 1 0.415 8.06530954068585 5.380505023256052 3.216906109085702 0 0 0
4538 1513 1 0.415 11.905289687317735 1.7975813425804508 3.4703483117695186 0 0 0
325 109 2 -0.83 13.35484880295528 2.68836403223253 4.130629714375472 0 0 0
326 109 1 0.415 13.459459182448281 3.52895440812986 3.6848760508168654 0 0 0
327 109 1 0.415 13.34335461435984 2.9102429498384863 5.061687966995032 0 0 0
433 145 2 -0.83 17.831314788403446 2.8937015709091547 4.497171365781554 0 0 0
434 145 1 0.415 17.93115451211611 3.8027436653027027 4.214494270076675 0 0 0
435 145 1 0.415 17.413416077951645 2.95402733487415 5.35621345449689 0 0 0
1405 469 2 -0.83 15.363463581874669 6.0920100805494375 4.487303456048425 0 0 0
1407 469 1 0.415 15.041389738666277 6.16122431339617 5.386030153670128 0 0 0
2487 829 1 0.415 12.966370729946625 5.176198876173828 1.1787986831710469 0 0 0
2593 865 2 -0.83 17.643455787787623 5.471950459924961 0.8145356920563847 0 0 0
2595 865 1 0.415 17.492629481977037 5.267679730930033 1.7374423693762142 0 0 0
3565 1189 2 -0.83 15.563364633175128 1.522068934755236 0.47984879369574 0 0 0
3567 1189 1 0.415 15.684290921146985 1.4228103306116342 1.4241773395945732 0 0 0
4645 1549 2 -0.83 15.894150376154784 1.2001624445007064 3.2862943780986518 0 0 0
4646 1549 1 0.415 16.61475539483268 1.5871265671323127 3.78350562363339 0 0 0
4647 1549 1 0.415 15.103590624694906 1.5239542114272928 3.7180420085089834 0 0 0
5725 1909 2 -0.83 13.213269034812747 5.136977779768129 2.919084710840178 0 0 0
5726 1909 1 0.415 13.928476546238821 5.594323627500983 3.361289223714696 0 0 0
5727 1909 1 0.415 12.428519537142934 5.629596586537347 3.1593486851867767 0 0 0
5833 1945 2 -0.83 17.612445791222928 5.378523840631523 3.4678398293513895 0 0 0
5835 1945 1 0.415 16.80579382629623 5.739644553776367 3.835448695487101 0 0 0
5834 1945 1 0.415 18.29583284428514 5.990346614042273 3.7414944840448707 0 0 0
2485 829 2 -0.83 12.889483410965575 5.311743984066787 0.23436885298004903 0 0 0
541 181 2 -0.83 21.254871005248688 2.6522531062037604 4.237105701503004 0 0 0
542 181 1 0.415 21.322093026408663 3.590462889224307 4.059692502868153 0 0 0
543 181 1 0.415 21.20497444823609 2.5913745490080777 5.191063758882355 0 0 0
1513 505 2 -0.83 19.43827487844932 7.161254354380639 4.1837661142298455 0 0 0
2701 901 2 -0.83 22.047004823879565 5.524520685095708 0.4112370496911834 0 0 0
2703 901 1 0.415 21.711568057741566 5.6048665655412515 1.3041304115693324 0 0 0
3673 1225 2 -0.83 19.822226176238054 1.7589639853793781 0.33066642109197575 0 0 0
3675 1225 1 0.415 19.847111899403618 1.6264111421197651 1.278317350879438 0 0 0
3781 1261 2 -0.83 24.377133428503782 1.5444647267020857 0.20533323854097624 0 0 0
3783 1261 1 0.415 24.34741270725883 1.2469061150573937 1.114622737721735 0 0 0
4753 1585 2 -0.83 19.463824931738333 1.2845007411966027 3.0860743876290435 0 0 0
4754 1585 1 0.415 20.26516149427217 1.703738023862922 3.399653175203381 0 0 0
4755 1585 1 0.415 18.75975635727457 1.8626565334490615 3.379766681639517 0 0 0
4861 1621 2 -0.83 23.596358978994385 1.5020866455058726 3.119070850339944 0 0 0
4863 1621 1 0.415 22.71603450935781 1.8487733123973167 3.2642225754349163 0 0 0
5941 1981 2 -0.83 21.394339088157743 5.50640468953215 3.026933186808063 0 0 0
5942 1981 1 0.415 22.255105417836393 5.794762592230052 3.330516595169146 0 0 0
5943 1981 1 0.415 20.7770285719235 6.094694319384309 3.4617605986345668 0 0 0
1515 505 1 0.415 19.454672278006115 7.224538599126129 5.138731071597678 0 0 0
1623 541 1 0.415 23.455400962432734 6.988536450428622 4.787085673565579 0 0 0
4862 1621 1 0.415 24.17904601942594 2.2334371772295083 3.32360459531723 0 0 0
2702 901 1 0.415 21.95075857387571 4.5955770583902265 0.2013984497621233 0 0 0
1621 541 2 -0.83 23.727467778534017 6.543988752161742 3.9842227763834117 0 0 0
649 217 2 -0.83 25.111692473407768 3.825080780966766 4.015959345482969 0 0 0
650 217 1 0.415 24.55511709863496 4.592518434016708 3.883690146632369 0 0 0
651 217 1 0.415 25.18285393986003 3.741244360939789 4.966821764949106 0 0 0
1729 577 2 -0.83 29.46707047083764 6.064866682052265 3.9362710989236116 0 0 0
1731 577 1 0.415 29.25079124822159 6.1995590062721915 4.858937406957508 0 0 0
2811 937 1 0.415 27.306901471580726 5.177190901784356 1.6090614411653172 0 0 0
3889 1297 2 -0.83 29.45477376915823 1.790949052962719 43.82072081888925 0 0 -1
3891 1297 1 0.415 29.41412992331643 1.9514016388483428 0.7486426405185846 0 0 0
4969 1657 2 -0.83 29.27271945400455 1.9529403620342838 2.579825860665869 0 0 0
4970 1657 1 0.415 30.074256128310758 2.164137236266106 3.0585394286391896 0 0 0
4971 1657 1 0.415 28.69722177825233 2.7023339497377625 2.7329386174662287 0 0 0
6049 2017 2 -0.83 27.684279335806508 4.008871196120474 3.0792208184524 0 0 0
6050 2017 1 0.415 28.16312916559675 4.529510475915921 3.724100205110475 0 0 0
6051 2017 1 0.415 26.85526680857007 3.79805254014891 3.508785219979615 0 0 0
1730 577 1 0.415 29.217387184171976 6.88429340734833 3.509152920348694 0 0 0
3800 1267 1 0.415 26.45361643168891 7.155629256041584 0.4077708885564231 0 0 0
6159 2053 1 0.415 30.814487576827407 5.193713852419073 3.6353044921707403 0 0 0
2919 973 1 0.415 31.704691905065754 4.317817295990192 1.6389223136807123 0 0 0
757 253 2 -0.83 31.260027774251128 2.1842634202435947 4.879914340662161 0 0 0
758 253 1 0.415 31.349327042050465 3.104646848022209 4.632625386637634 0 0 0
759 253 1 0.415 31.31130890123311 2.18651169252386 5.8357370393923365 0 0 0
865 289 2 -0.83 36.47021740689593 2.2822507022665826 3.7516176611594347 0 0 0
866 289 1 0.415 36.39305340325904 3.18615510338808 3.4462745909365373 0 0 0
867 289 1 0.415 36.42137203816684 2.346146810450018 4.705432767873857 0 0 0
1837 613 2 -0.83 34.114978288235086 6.224973342245913 4.099231790337415 0 0 0
1839 613 1 0.415 34.50070056291093 6.218831813893517 4.97525259414191 0 0 0
3025 1009 2 -0.83 36.10567588452632 4.905480605954307 0.3424789390293784 0 0 0
3027 1009 1 0.415 36.15027981801617 4.872773887959047 1.2980795880988303 0 0 0
3997 1333 2 -0.83 34.18486099494729 0.6214490512129619 0.6839641781938876 0 0 0
3999 1333 1 0.415 34.56607975769688 47.02341462465506 1.5151736555718969 0 -1 0
5078 1693 1 0.415 35.73345016051458 0.632125505362637 3.330109470517572 0 0 0
6157 2053 2 -0.83 31.5680017159628 4.615396228817989 3.5169955364290924 0 0 0
6158 2053 1 0.415 32.31883545725943 5.13936249715279 3.79617268931456 0 0 0
6265 2089 2 -0.83 36.43262005454824 4.931681826497745 2.8894810273755924 0 0 0
6266 2089 1 0.415 37.27260166327251 5.3358232371071495 3.1070412666748557 0 0 0
6267 2089 1 0.415 35.79813114748714 5.381776443823076 3.447217974766975 0 0 0
1928 643 1 0.415 31.950769592146518 0.7775547662375926 4.392902463207242 0 1 0
7237 2413 2 -0.83 35.927154313622964 6.514951145052672 6.259784550046427 0 0 0
7238 2413 1 0.415 36.243076213786715 5.701409013226487 6.652944050783424 0 0 0
8441 2814 1 0.415 35.52160963889697 2.0894823979868886 0.23597116551619884 0 0 1
2161 721 2 -0.83 0.18788574995238136 4.725142763171432 0.628683809934793 0 0 0
5187 1729 1 0.415 37.90428303331695 1.6335726216852293 3.2223066208534403 0 0 0
973 325 2 -0.83 40.88108751232446 2.848006918123038 4.068751752398145 0 0 0
974 325 1 0.415 41.11445533949413 3.7347609439032645 3.7940908786589755 0 0 0
975 325 1 0.415 40.88255215099982 2.8848298877868346 5.025242089097183 0 0 0
1945 649 2 -0.83 38.46078658678832 6.232784170802913 3.9661511379336423 0 0 0
1947 649 1 0.415 38.500837339237385 6.085906604131617 4.91116688268151 0 0 0
2053 685 2 -0.83 43.19999826206756 6.631816443563897 3.9190541479342165 0 0 0
2055 685 1 0.415 43.24301498705235 6.576994819662803 4.873714292299171 0 0 0
3133 1045 2 -0.83 40.856895323200085 5.022148976969322 0.26973273245814156 0 0 0
3135 1045 1 0.415 40.947168723615015 4.89656458210665 1.2143549426365021 0 0 0
4107 1369 1 0.415 38.96403468282869 1.0551590943974865 1.291633676593834 0 0 0
4213 1405 2 -0.83 42.52687489400668 0.9929694220599401 44.18661700064154 0 0 -1
4215 1405 1 0.415 42.70934704900047 0.8118119946685419 1.0937767191102208 0 0 0
5185 1729 2 -0.83 38.73419058496472 1.1935052130567172 3.0383882366515342 0 0 0
5186 1729 1 0.415 39.39627657961629 1.7470525195062045 3.452464745825978 0 0 0
5293 1765 2 -0.83 43.08606821538995 0.9211406270549614 3.2971281989387777 0 0 0
5294 1765 1 0.415 43.807537451155376 1.4792182558076754 3.587409686978243 0 0 0
5295 1765 1 0.415 42.306695339454116 1.4691581316328157 3.389250807689663 0 0 0
6373 2125 2 -0.83 41.04698904503047 5.254854266196616 3.1282676107760614 0 0 0
6374 2125 1 0.415 41.77354653118428 5.8538625514105584 3.3001254991389786 0 0 0
6375 2125 1 0.415 40.308566756997266 5.629169095539791 3.608739017965355 0 0 0
8550 2850 1 0.415 41.465879877017 2.016229056015318 43.39771127615759 0 0 0
19 7 2 -0.83 0.6244006410087114 10.660770554087081 4.058707256325406 0 0 0
20 7 1 0.415 0.3999606297695259 11.534663758872362 3.739068103290258 0 0 0
21 7 1 0.415 0.5639430238771563 10.730847941330858 5.01142225905672 0 0 0
127 43 2 -0.83 4.7462457720777085 10.686240513450924 3.3665802385286003 0 0 0
128 43 1 0.415 4.6404295047994255 11.586280301866351 3.058419343706799 0 0 0
129 43 1 0.415 4.922292949807763 10.772494242616977 4.303489799530944 0 0 0
1082 361 1 0.415 2.9152086288693697 7.714419831594816 3.5815586624394444 0 0 0
2181 727 1 0.415 -0.5314552624424069 12.771311841449872 1.2574809574175707 0 0 0
2287 763 2 -0.83 4.28331828391537 12.709029851988545 44.05388498763872 0 0 -1
2289 763 1 0.415 4.328096121638743 12.631872498309663 0.9920602623529722 0 0 0
3259 1087 2 -0.83 2.0918776142771165 9.246091860306317 43.88444219176875 0 0 -1
3261 1087 1 0.415 2.0720259485011643 9.18058984543647 0.8243334416671625 0 0 0
4339 1447 2 -0.83 2.4810420517657175 9.323241001501941 2.8006375073492977 0 0 0
4340 1447 1 0.415 3.234184533271701 9.761062364301523 3.197274239305471 0 0 0
4341 1447 1 0.415 1.7211342759881882 9.71975066502153 3.226726816884821 0 0 0
5419 1807 2 -0.83 -0.5055715677825929 13.060997129558132 3.0037450438482636 0 0 0
5527 1843 2 -0.83 4.625528285801969 13.274989450180078 2.639350615867924 0 0 0
5528 1843 1 0.415 5.491982539635611 13.432810935000752 3.0142922717841825 0 0 0
5529 1843 1 0.415 4.033741373116325 13.80872790635066 3.1695801423518843 0 0 0
5420 1807 1 0.415 0.027237432712829638 13.855043111824406 3.046609797489947 0 0 0
5421 1807 1 0.415 43.551206947560445 13.336324382963 3.3053231996656574 -1 0 0
2179 727 2 -0.83 -0.36021881162825586 13.120976892484359 0.3830415540522147 0 0 0
7579 2527 2 -0.83 -0.29962009182840527 10.46889689516344 6.7628648760100445 0 0 0
235 79 2 -0.83 8.804315001245365 10.130143457224525 4.256190084089523 0 0 0
236 79 1 0.415 8.685522541202285 11.006159472334998 3.889153119918376 0 0 0
237 79 1 0.415 8.89864058734452 10.275154629680479 5.197628496190544 0 0 0
1190 397 1 0.415 6.819843255853194 7.290218168043261 3.8675542706253827 0 0 0
1298 433 1 0.415 10.76214109881919 6.9675262808083 3.5769883205458117 0 0 0
2395 799 2 -0.83 8.650554877750674 13.217770733394218 0.39470118192524994 0 0 0
2397 799 1 0.415 8.653201649958351 13.070178086967303 1.340450221390961 0 0 0
3369 1123 1 0.415 6.726250743088503 8.86874629720845 1.3357705596743492 0 0 0
3475 1159 2 -0.83 10.995038149195544 9.128649490679104 0.39652907826996825 0 0 0
3477 1159 1 0.415 10.840695194330921 8.929381624035969 1.3199479485552366 0 0 0
4447 1483 2 -0.83 6.714007590308642 8.829815308744351 3.129744231676953 0 0 0
4448 1483 1 0.415 7.453414786667842 9.278900744512079 3.539416185275315 0 0 0
4449 1483 1 0.415 5.9635772791750155 9.39938727518887 3.2990781128513564 0 0 0
4555 1519 2 -0.83 10.88326824336679 8.819587761050444 3.0234989474501477 0 0 0
4557 1519 1 0.415 10.215354805771257 9.392018866830842 3.4009192823637417 0 0 0
5635 1879 2 -0.83 8.862693015595571 12.598497766525398 3.381335825594157 0 0 0
5636 1879 1 0.415 9.71059897330119 12.835632495261358 3.7569079965271763 0 0 0
5637 1879 1 0.415 8.246743017140094 13.221535400417531 3.7669023572278495 0 0 0
4556 1519 1 0.415 11.714473774044011 9.213343830430174 3.2886128170253377 0 0 0
343 115 2 -0.83 12.997434635694633 10.119432409827164 4.103992353260399 0 0 0
344 115 1 0.415 13.245302899644347 10.92941352233158 3.6582079192466064 0 0 0
345 115 1 0.415 12.813719507634524 10.387554424862792 5.004320725083404 0 0 0
451 151 2 -0.83 17.33239998156249 10.608136794391891 4.099443197761947 0 0 0
452 151 1 0.415 17.20090380269797 11.49428249776236 3.762269077329956 0 0 0
453 151 1 0.415 17.24004148405834 10.696161407722283 5.048101943371111 0 0 0
1406 469 1 0.415 15.086844732003694 6.9077085207281 4.069751168798775 0 0 0
2503 835 2 -0.83 12.825058874021211 13.06192493583408 0.43946616473752803 0 0 0
2505 835 1 0.415 13.023763761784473 12.850609729871527 1.3516580861868608 0 0 0
2611 871 2 -0.83 17.248879259062193 13.306289051874623 0.5412917462889519 0 0 0
2613 871 1 0.415 17.305526096523106 13.210314630665913 1.4919819622053658 0 0 0
3583 1195 2 -0.83 15.415819319450142 9.087842933392427 0.4853481483464534 0 0 0
3585 1195 1 0.415 15.296378323749863 8.926127879311986 1.4211974578289948 0 0 0
4663 1555 2 -0.83 15.08641459474687 8.61984036395956 3.164755740265443 0 0 0
4664 1555 1 0.415 15.86450703688695 8.967085926957484 3.600903095424792 0 0 0
4665 1555 1 0.415 14.354443620146034 9.07328916276325 3.5828879350673826 0 0 0
5743 1915 2 -0.83 13.324409883350897 12.699898569870653 3.1849461996185 0 0 0
5851 1951 2 -0.83 17.35031993267891 13.27014940463914 3.261022431040671 0 0 0
5853 1951 1 0.415 16.744537634786532 13.882260157306657 3.6788502354632096 0 0 0
5744 1915 1 0.415 13.98996988483943 13.294518970502901 3.530906174075557 0 0 0
5852 1951 1 0.415 18.21324752057684 13.527076303493573 3.5859476332360285 0 0 0
3584 1195 1 0.415 15.614014370854989 8.227109595976186 44.13130473089068 0 0 -1
559 187 2 -0.83 23.396596360589935 10.250838210759994 3.997095188597822 0 0 0
560 187 1 0.415 22.865087922755396 10.948559365448224 3.6137991964446976 0 0 0
561 187 1 0.415 23.012530142778918 10.103869910366287 4.861459291220514 0 0 0
1514 505 1 0.415 19.512689141991753 8.066571197653323 3.8819453546387357 0 0 0
2721 907 1 0.415 21.642983003665275 12.266606256083042 1.152523395175076 0 0 0
3693 1231 1 0.415 19.806353668834227 9.066595409493882 1.5077634680607161 0 0 0
4771 1591 2 -0.83 19.70669645231229 9.720293864080244 3.396805897640089 0 0 0
4772 1591 1 0.415 20.283467112296233 10.350658973683219 3.828323306844327 0 0 0
4773 1591 1 0.415 18.831463531392966 10.098365914931199 3.4820156323065454 0 0 0
4881 1627 1 0.415 24.529257973290328 9.252176718425043 3.1957551538084474 0 0 0
5959 1987 2 -0.83 22.087376094926576 12.387416545015817 3.0648578114193565 0 0 0
5960 1987 1 0.415 22.804115796141303 12.907283324856131 3.428526028539151 0 0 0
5961 1987 1 0.415 21.293640098498287 12.83687406761479 3.3550352458583936 0 0 0
3691 1231 2 -0.83 19.82295013999876 8.938869699390882 0.5592685846918061 0 0 0
3692 1231 1 0.415 19.54681590702818 8.030894695777647 0.43451634906236564 0 0 0
1639 547 2 -0.83 24.16756574363767 14.055823471517273 4.021497432181871 0 0 0
2719 907 2 -0.83 21.296168200444583 12.259927419713494 0.26038734862156043 0 0 0
1622 541 1 0.415 24.261455932194213 7.18972998462906 3.5215060674840433 0 0 0
3801 1267 1 0.415 25.63324773159606 7.95077144712859 1.401068066492893 0 0 0
4879 1627 2 -0.83 25.1756322359451 8.58886698454175 2.9539859445285983 0 0 0
4880 1627 1 0.415 25.96862429617512 8.843305420481785 3.4258508777328447 0 0 0
667 223 2 -0.83 27.556159861495118 10.014666020618526 3.7499247302297687 0 0 0
668 223 1 0.415 27.54218608823363 10.925703169266495 3.456585517775335 0 0 0
669 223 1 0.415 27.460918176608747 10.067263149582809 4.700921264908384 0 0 0
2827 943 2 -0.83 26.82880166235537 12.274526639791645 0.41638637538257867 0 0 0
2829 943 1 0.415 26.921829700094772 12.228130765051652 1.367924628535266 0 0 0
3909 1303 1 0.415 29.664730105411103 8.339485563017112 0.9338205958613883 0 0 0
4987 1663 2 -0.83 29.710480255641386 8.53975814160079 2.802655910041753 0 0 0
4988 1663 1 0.415 30.463181328378273 9.00110568505625 3.172563168604102 0 0 0
4989 1663 1 0.415 28.950125250229405 8.961047235404521 3.203414697369041 0 0 0
6067 2023 2 -0.83 26.808232163879552 12.72166396338796 3.0330019784273285 0 0 0
6068 2023 1 0.415 27.45886229291151 13.252576859300055 3.4923969911966815 0 0 0
6069 2023 1 0.415 25.9654547184925 13.065174183492621 3.32958038369749 0 0 0
6177 2059 1 0.415 30.898460843179084 13.111120508755969 3.7741664845981004 0 0 0
2828 943 1 0.415 27.011127637614177 11.384913197056877 44.12862803339686 0 0 -1
3799 1267 2 -0.83 25.853853583296154 7.898938310823065 0.47107977387537614 0 0 0
3907 1303 2 -0.83 29.66842612216838 8.551923525578495 44.01535806719928 0 0 -1
1747 583 2 -0.83 29.280912095500597 13.88028331296575 4.340725474144821 0 0 0
2935 979 2 -0.83 32.05365417706845 12.72060497756258 0.7339717378911835 0 0 0
775 259 2 -0.83 31.516321935801514 9.859456013277793 4.1634024431911145 0 0 0
776 259 1 0.415 31.659953372159535 10.805773542231286 4.172621189237775 0 0 0
777 259 1 0.415 31.59763148169556 9.595439916205693 5.079871809266398 0 0 0
2937 979 1 0.415 31.979783093828413 12.534007238382822 1.6698970484913103 0 0 0
6175 2059 2 -0.83 31.670632469601923 12.621238718757676 3.4913261439607854 0 0 0
883 295 2 -0.83 36.3501531270781 10.747592991680175 4.366550640446324 0 0 0
884 295 1 0.415 36.25850396194601 11.577111261440683 3.897795148568082 0 0 0
885 295 1 0.415 36.161235626153854 10.965558394211405 5.27925711091479 0 0 0
1838 613 1 0.415 33.97132522194047 7.151551863703238 3.9067535305720105 0 0 0
3043 1015 2 -0.83 36.04507954361909 12.923869010504415 0.3920425375966714 0 0 0
3045 1015 1 0.415 35.866640696362616 12.750993263014802 1.316437147093381 0 0 0
4017 1339 1 0.415 34.206983836499504 8.586093312279237 1.920023677889975 0 0 0
5095 1699 2 -0.83 33.917603286866374 8.927536179009827 3.697856138149574 0 0 0
5096 1699 1 0.415 34.63884687444751 9.537089474949777 3.854330767401138 0 0 0
5097 1699 1 0.415 33.12761820805197 9.447688158621519 3.8448164833395166 0 0 0
6176 2059 1 0.415 32.41182887836841 13.147473834757362 3.7912200112316383 0 0 0
6283 2095 2 -0.83 35.96252130616302 12.985858824538255 3.250462299216687 0 0 0
6284 2095 1 0.415 36.705748894820815 13.534869603529373 3.5003257743624836 0 0 0
6285 2095 1 0.415 35.200409870246624 13.429981551322959 3.622178593166538 0 0 0
5205 1735 1 0.415 37.76226919725659 9.49456841502663 3.876490055984777 0 0 0
2936 979 1 0.415 32.02883426755839 11.860302607976521 0.3150497341715587 0 0 0
3044 1015 1 0.415 35.88087101026032 12.08797869436915 43.970375313642656 0 0 -1
991 331 2 -0.83 41.07490972066205 10.663245997933474 4.003572886257783 0 0 0
992 331 1 0.415 40.761739353766025 11.530679826118984 3.747224070353573 0 0 0
993 331 1 0.415 40.86324457214283 10.597188794731352 4.934736755266326 0 0 0
1946 649 1 0.415 38.59835717791728 7.1744792391125936 3.8636008029973525 0 0 0
2054 685 1 0.415 43.22160540188757 7.57018131762715 3.731340709856013 0 0 0
3151 1051 2 -0.83 40.17942266822226 13.092942350851105 0.28881222872031254 0 0 0
3153 1051 1 0.415 39.82217009043113 13.037882918402873 1.1751366020134981 0 0 0
4123 1375 2 -0.83 37.90357292529931 8.917194773156666 0.3285118293371424 0 0 0
4125 1375 1 0.415 37.91268034296859 8.790697549310083 1.2772727849052243 0 0 0
4233 1411 1 0.415 42.7677168590741 8.743676422001306 1.3192737027748136 0 0 0
5203 1735 2 -0.83 38.43857715302595 8.866136688204005 3.6236799416717163 0 0 0
5204 1735 1 0.415 39.2600948917027 9.349580908649756 3.7109847574050026 0 0 0
5311 1771 2 -0.83 43.24627985568449 9.20170324140173 3.112716085924161 0 0 0
5312 1771 1 0.415 44.01475148770942 9.680575736468619 3.4231421228018033 0 0 0
5313 1771 1 0.415 42.501472258433175 9.688340080539305 3.4658139054093864 0 0 0
6391 2131 2 -0.83 40.12770579709836 12.97319330871065 3.2690948521932732 0 0 0
6392 2131 1 0.415 40.964905291084236 13.408667469056782 3.4293792968471215 0 0 0
6393 2131 1 0.415 39.47170784753079 13.58166952241976 3.6091760602109972 0 0 0
4124 1375 1 0.415 37.93860341515928 8.031202597084926 43.98278396726154 0 0 -1
37 13 2 -0.83 -0.05128832655881127 18.63298527174376 4.1370100880556455 0 0 0
38 13 1 0.415 0.24548684052093722 19.50374148058695 3.8725484362086373 0 0 0
39 13 1 0.415 0.08075143849081189 18.61203747370564 5.084827860844954 0 0 0
145 49 2 -0.83 4.306458238240217 18.323471905660973 3.910985174762086 0 0 0
146 49 1 0.415 4.475916183103362 19.16307707760652 3.483692534550054 0 0 0
147 49 1 0.415 4.433728439940794 18.498692671732165 4.843364828656748 0 0 0
1099 367 2 -0.83 2.4907451982324464 14.485935428147537 3.956996473090769 0 0 0
1100 367 1 0.415 2.4255690169947988 15.40264877628224 3.6893763094520717 0 0 0
1101 367 1 0.415 2.2778280396232806 14.492643033862095 4.890191595046692 0 0 0
3277 1093 2 -0.83 2.0960392927028577 16.839101991708255 0.23072672206300832 0 0 0
3279 1093 1 0.415 2.089131964651289 16.93636735635703 1.1829470631011525 0 0 0
4357 1453 2 -0.83 2.1284800702035014 16.966648672497502 2.946203921488839 0 0 0
4358 1453 1 0.415 2.9165978116487445 17.486133634638872 3.1050675105218093 0 0 0
4359 1453 1 0.415 1.410663124412087 17.51849009621955 3.2567545864619443 0 0 0
2198 733 1 0.415 0.01727940024791654 20.022241749526323 44.15458331165661 0 0 -1
7613 2538 1 0.415 43.960605189248454 17.9669022678777 43.70696130699906 -1 0 0
253 85 2 -0.83 8.279876484286612 18.24283271116198 4.3889158123820495 0 0 0
254 85 1 0.415 8.376862954845052 19.137934796481662 4.063927010105296 0 0 0
255 85 1 0.415 8.468692491140501 18.305679145551633 5.325201389275218 0 0 0
1207 403 2 -0.83 6.600913028246572 14.292671353581312 4.082271715453111 0 0 0
1208 403 1 0.415 6.52544084180774 15.131283803195151 3.6270081119444124 0 0 0
1209 403 1 0.415 6.438400213690925 14.503291907001959 5.001760925810751 0 0 0
1315 439 2 -0.83 11.0696498358747 13.810073343895795 3.9615465651390043 0 0 0
1316 439 1 0.415 10.98146898968527 14.70309025186583 3.628414787988178 0 0 0
1317 439 1 0.415 10.772012651175105 13.862262371190734 4.869797770463492 0 0 0
3385 1129 2 -0.83 6.303943228102195 16.82487772031408 43.858022027015394 0 0 -1
3387 1129 1 0.415 6.49464162779806 16.610063719971297 0.7562466368956864 0 0 0
3493 1165 2 -0.83 10.740457819645481 16.933437099129378 0.5044196579486162 0 0 0
3495 1165 1 0.415 10.654677693117357 16.664394551333377 1.4190177759788116 0 0 0
4465 1489 2 -0.83 6.273413940744375 16.74501101579409 2.9027193613977595 0 0 0
4466 1489 1 0.415 7.040640210027757 17.161949954499484 3.2948387480125065 0 0 0
4467 1489 1 0.415 5.529874968079643 17.243520949119315 3.241643368893581 0 0 0
4573 1525 2 -0.83 10.70770514985045 16.34756005959428 3.329281877350201 0 0 0
4575 1525 1 0.415 9.811593085186177 16.302977181156166 3.6627895632810383 0 0 0
4574 1525 1 0.415 11.13095369525896 17.016703604847525 3.8671846821896025 0 0 0
3494 1165 1 0.415 10.911158133154467 16.11983229127387 44.04478855435917 0 0 -1
5745 1915 1 0.415 12.491742984922295 13.118057990120297 3.404127348417443 0 0 0
361 121 2 -0.83 13.57257442567837 18.119642814477462 4.351515949581607 0 0 0
362 121 1 0.415 13.663276505151984 19.007165371284728 4.004660517271081 0 0 0
363 121 1 0.415 13.493063023224714 18.238813344515734 5.297934551495841 0 0 0
469 157 2 -0.83 17.509114783519493 17.975566920987585 4.267361236629927 0 0 0
471 157 1 0.415 17.720029639589825 18.06106245935169 5.197112432441298 0 0 0
1423 475 2 -0.83 15.14636404677631 14.5905308108141 4.031199701886443 0 0 0
1424 475 1 0.415 15.205470141884286 15.45285781692707 3.619944982342327 0 0 0
1425 475 1 0.415 14.96608921183579 14.776014858934746 4.952789899231756 0 0 0
3601 1201 2 -0.83 15.571514717989011 17.13846965606599 44.10846123186229 0 0 -1
3603 1201 1 0.415 15.348276102672795 17.126807546649285 1.0243337387205587 0 0 0
4681 1561 2 -0.83 15.617563479910853 16.84153118544534 2.810979885195318 0 0 0
4682 1561 1 0.415 16.430796884189533 17.283080493033893 3.055760357109151 0 0 0
4683 1561 1 0.415 14.93015777850982 17.346512070566583 3.245375497041944 0 0 0
470 157 1 0.415 17.48623362830133 18.875736955614936 3.942704172272786 0 0 0
2522 841 1 0.415 13.103156886588712 20.087712325773822 44.15335489273872 0 0 -1
2630 877 1 0.415 18.18536854893782 19.836197440676546 43.86867101030715 0 0 -1
577 193 2 -0.83 22.182704235180474 18.01008971054939 4.326855404843481 0 0 0
578 193 1 0.415 22.00208789729862 18.841269373719726 3.8878224378954194 0 0 0
579 193 1 0.415 22.3575808724526 18.252089357079946 5.236298186482262 0 0 0
1531 511 2 -0.83 19.70414502344775 13.89068208712778 4.076580311625239 0 0 0
1532 511 1 0.415 19.882596648485894 14.760389498394046 3.718815197830729 0 0 0
1533 511 1 0.415 19.844745919749776 13.98524089834157 5.018664097504465 0 0 0
1641 547 1 0.415 24.286551837201372 14.184390972754525 4.96253119741759 0 0 0
3711 1237 1 0.415 19.82569027330337 16.352626410434787 1.4936906639191248 0 0 0
4789 1597 2 -0.83 19.887840248363787 16.613734133677767 3.4507631751579555 0 0 0
4790 1597 1 0.415 20.674411326351258 17.120637776935865 3.6522240531652312 0 0 0
4791 1597 1 0.415 19.215102126527885 16.97508789274575 4.02789290513766 0 0 0
4899 1633 1 0.415 23.940705073865807 17.254758513959676 3.4385586469733807 0 0 0
3709 1237 2 -0.83 19.76969687147836 16.422623686900312 0.5406969788795118 0 0 0
4897 1633 2 -0.83 24.65996479320508 16.66969101637586 3.2006651331756837 0 0 0
5977 1993 2 -0.83 22.211193766190977 20.30968005333426 2.829059084796778 0 0 0
8046 2682 1 0.415 18.624502352654854 17.427033731970422 43.769759809658964 0 0 0
1640 547 1 0.415 24.351773559464167 14.912834043598197 3.6370079002710654 0 0 0
3817 1273 2 -0.83 24.81041687737042 16.33497506093754 0.44640349531913176 0 0 0
3819 1273 1 0.415 24.93829068022464 16.265792525744164 1.3924975221488507 0 0 0
685 229 2 -0.83 27.029289280432696 17.945130549725988 3.586459013058703 0 0 0
686 229 1 0.415 27.028349300622303 18.898854427809034 3.504962256035755 0 0 0
687 229 1 0.415 27.174790649759313 17.78407531644889 4.5187263587521915 0 0 0
1748 583 1 0.415 29.288336059083218 14.815825498538242 4.1383951895324795 0 0 0
1749 583 1 0.415 29.46885815730501 13.83600744892134 5.278247615730514 0 0 0
3925 1309 2 -0.83 29.26730790249073 16.264939514950694 0.6843665351169703 0 0 0
3927 1309 1 0.415 29.2273354392034 16.30574223792889 1.639860742422292 0 0 0
4898 1633 1 0.415 25.451676523973028 17.171441216971015 3.3947556356843562 0 0 0
5005 1669 2 -0.83 29.44538127017738 16.492774804068652 3.494948237513198 0 0 0