LAMMPS data file via write_data, version 29 Sep 2021, timestep = 5000

8640 atoms
2 atom types
5760 bonds
1 bond types
2880 angles
1 angle types

-0.28517616340344887 43.69379004340347 xlo xhi
0.8715500111250236 46.57579871887529 ylo yhi
0.6412444690230181 43.73163095097706 zlo zhi

Masses

1 1.0079401
2 15.9994

Pair Coeffs # lj/cut/coul/long

1 0 0
2 0.102 3.188

Bond Coeffs # harmonic

1 450 0.9572

Angle Coeffs # harmonic

1 55 104.52

Atoms # full

1 1 2 -0.83 1.8224992198334276 3.0748727870809955 5.030796600235706 0 0 0
2 1 1 0.415 1.757191996695132 3.9338364890689492 4.6133893549705665 0 0 0
3 1 1 0.415 1.8043966551688553 3.2621319881589574 5.969369318312396 0 0 0
109 37 2 -0.83 5.992483155926006 2.704587110114706 5.135193418651039 0 0 0
110 37 1 0.415 5.854378488034315 3.514039070031814 4.643230937699221 0 0 0
111 37 1 0.415 5.77241964808364 2.9322584487358787 6.038548436339918 0 0 0
2163 721 1 0.415 0.6283637981725926 5.646004575470075 2.037279149377653 0 0 0
2269 757 2 -0.83 5.847051882777982 5.431637596181429 1.0666300447906345 0 0 0
2271 757 1 0.415 5.7831756143518 5.258628178461266 2.005938319719257 0 0 0
4321 1441 2 -0.83 3.71592497924863 1.5723225097582723 4.064372631243442 0 0 0
4322 1441 1 0.415 4.4939011584851025 1.9599114443519638 4.4654216952764525 0 0 0
4323 1441 1 0.415 3.001213893721033 2.1597073707089374 4.310298536991753 0 0 0
5401 1801 2 -0.83 1.4400674303913679 5.483746937926893 4.20763364055143 0 0 0
5402 1801 1 0.415 2.206261907748196 5.823310837651728 4.670186180713288 0 0 0
5509 1837 2 -0.83 5.562718452655416 4.984051143604692 3.912967949126606 0 0 0
5511 1837 1 0.415 4.878909809347064 5.368920399152753 4.461232353099209 0 0 0
3241 1081 2 -0.83 3.40496625998957 1.5172329851772859 1.4394370945539077 0 0 0
7577 2526 1 0.415 0.6375926455366518 2.767452693642398 1.0376781301506424 0 0 1
1081 361 2 -0.83 3.6917970011577927 7.190518138340904 5.013625973705074 0 0 0
1083 361 1 0.415 3.6779431382133163 7.479082632817083 5.9262327272460205 0 0 0
2270 757 1 0.415 5.602193368125179 4.603862733414266 0.6529325877902465 0 0 0
5403 1801 1 0.415 0.8002957424561019 6.194594292515368 4.24887321683468 0 0 0
3243 1081 1 0.415 3.497511467002943 1.5037105771600614 2.3920991473521234 0 0 0
5510 1837 1 0.415 6.323826981692864 5.548991550772461 4.046641468983781 0 0 0
217 73 2 -0.83 9.967061148662175 2.5445013217289545 4.293155264473655 0 0 0
218 73 1 0.415 9.860511011250075 3.4800772136516525 4.120942339450001 0 0 0
219 73 1 0.415 9.83819729653779 2.4581417110301915 5.237744375994341 0 0 0
1189 397 2 -0.83 7.33598158604503 6.756159803529709 4.490635012386191 0 0 0
1191 397 1 0.415 7.184987572124323 6.959028560453551 5.413867130116339 0 0 0
1299 433 1 0.415 11.788142821290727 7.038283213487453 5.212671821858014 0 0 0
2377 793 2 -0.83 9.82633786151171 5.845408118691818 0.9825496611642239 0 0 0
2379 793 1 0.415 9.829773039371764 5.86624573161645 1.9395587815867683 0 0 0
3351 1117 1 0.415 7.854198177178768 1.6818902070752937 1.7385551223860118 0 0 0
3459 1153 1 0.415 11.92890846993747 1.477060572331785 1.798396893946814 0 0 0
4429 1477 2 -0.83 7.734550740028377 1.4535548402731995 3.5582673143878005 0 0 0
4430 1477 1 0.415 8.618941214077314 1.7049658301162776 3.824647620460614 0 0 0
4431 1477 1 0.415 7.1588330824524125 1.9378923413654696 4.150110900690834 0 0 0
4537 1513 2 -0.83 12.272452788596304 1.4326371971165144 3.3993255691369253 0 0 0
4539 1513 1 0.415 11.40335042109985 1.6408356824944645 3.7422933891635393 0 0 0
5617 1873 2 -0.83 9.811318736282358 5.233329765285318 3.5688254712929375 0 0 0
5618 1873 1 0.415 10.526100196320787 5.792230045459544 3.873834342271776 0 0 0
5619 1873 1 0.415 9.057091577988626 5.49998042910018 4.094516716254501 0 0 0
3349 1117 2 -0.83 7.594435929835455 1.731139468446183 0.8185493918755923 0 0 0
3350 1117 1 0.415 7.552379685144679 46.52305010672754 43.62226013881754 0 -1 -1
4538 1513 1 0.415 12.862537649112213 2.025293464971204 3.865019540325077 0 0 0
5727 1909 1 0.415 13.198409453807836 5.965207236358754 3.8974567827829065 0 0 0
325 109 2 -0.83 14.13729578042336 3.1795572163565877 4.650317570124272 0 0 0
326 109 1 0.415 14.149239284981281 4.005577636045903 4.166726754073608 0 0 0
327 109 1 0.415 14.251751969516958 3.4355994727454116 5.565552301197267 0 0 0
434 145 1 0.415 17.93502563343349 4.200634882839317 4.278030895960773 0 0 0
435 145 1 0.415 17.93818589021466 3.159617466741054 5.377289559816291 0 0 0
1405 469 2 -0.83 16.024612705277058 7.24184231652147 4.491226835366925 0 0 0
1407 469 1 0.415 16.25893895349738 7.587731471287921 5.3524842717470875 0 0 0
2485 829 2 -0.83 13.8216369249453 5.515582478648587 0.690151082715488 0 0 0
2487 829 1 0.415 13.83639543020966 5.373996436337296 1.6367492239574204 0 0 0
2595 865 1 0.415 17.962294577873088 5.823577295349116 1.764862784773543 0 0 0
3565 1189 2 -0.83 15.530155115193987 1.9971162113607592 43.62269918856255 0 0 -1
3567 1189 1 0.415 15.411257006493644 2.0208376103832597 1.4818457585353193 0 0 0
4645 1549 2 -0.83 16.102807461644378 1.8261671807287483 3.131374611243019 0 0 0
4646 1549 1 0.415 16.65704158738318 2.5433522172506287 3.439242556591231 0 0 0
4647 1549 1 0.415 15.26604505469229 1.961556432029517 3.576133986526674 0 0 0
5725 1909 2 -0.83 13.980094699964905 5.4504373588836525 3.6967265799668687 0 0 0
5726 1909 1 0.415 14.710223221235005 6.007862910767356 3.965987714093429 0 0 0
5833 1945 2 -0.83 18.024522470866923 5.8827913108249215 3.4810736739022787 0 0 0
5835 1945 1 0.415 17.48943385481881 6.3923990242705635 4.089590423979786 0 0 0
2593 865 2 -0.83 17.965415501798688 5.823351461397578 0.8076257879127062 0 0 0
433 145 2 -0.83 18.055162488922743 3.2636805554788566 4.432938017431264 0 0 0
5834 1945 1 0.415 18.92704602908488 6.089310058641553 3.7242068268290422 0 0 0
541 181 2 -0.83 22.160092917314792 3.1770148733078702 4.529915402332097 0 0 0
542 181 1 0.415 22.138035861804433 4.071208837575177 4.1889709666087755 0 0 0
543 181 1 0.415 22.39556792750852 3.2775877307937615 5.452276013103025 0 0 0
1513 505 2 -0.83 20.313082336088883 7.138780554449342 4.322476046711052 0 0 0
1515 505 1 0.415 20.27679438454713 7.277378658857244 5.268935894034078 0 0 0
2701 901 2 -0.83 22.08186312914714 6.049932953356389 0.9478093006454862 0 0 0
2703 901 1 0.415 22.17843987595622 5.99150811996195 1.8983733058105914 0 0 0
3675 1225 1 0.415 19.926646864030783 1.7612308421779468 2.258034083558635 0 0 0
3783 1261 1 0.415 23.872739805369694 1.237395667583651 1.8169109595792012 0 0 0
4753 1585 2 -0.83 20.186455225693823 1.4312672954336167 3.945449142800346 0 0 0
4754 1585 1 0.415 20.790146907860628 2.1520254690943816 4.125383761586656 0 0 0
4755 1585 1 0.415 19.32071955000998 1.8396197808627788 3.9375466614984105 0 0 0
4863 1621 1 0.415 23.15583969485326 1.7102133225237148 3.9093726663678394 0 0 0
5941 1981 2 -0.83 22.725895037319436 5.818034282910832 3.628263730696147 0 0 0
5942 1981 1 0.415 23.518504015046204 6.1756187134880625 4.028534706367317 0 0 0
5943 1981 1 0.415 22.007771849329444 6.258020775231462 4.0832620239477215 0 0 0
3673 1225 2 -0.83 19.88353265207956 1.9348233398865595 1.317651571132473 0 0 0
4861 1621 2 -0.83 23.929044375106773 1.2383410808638082 3.5998511278189147 0 0 0
3781 1261 2 -0.83 23.94011974788201 1.4163287459671594 0.8789582074774542 0 0 0
8118 2706 1 0.415 22.41912507766213 2.52821460536345 0.6667957523205672 0 0 1
3782 1261 1 0.415 24.003248311815195 46.25571463457644 43.56395652983139 0 -1 -1
649 217 2 -0.83 26.05986945385786 2.8770288894607337 4.557007272270241 0 0 0
650 217 1 0.415 26.11507307256468 3.756615490000139 4.183386559095302 0 0 0
651 217 1 0.415 26.021686504723093 3.0199598414587925 5.502747869320933 0 0 0
1729 577 2 -0.83 29.03094275049002 6.444726017500003 4.241968849664788 0 0 0
2809 937 2 -0.83 26.618514359607943 5.462288044258068 0.7816072441199119 0 0 0
2811 937 1 0.415 26.35973029087777 5.597774963668019 1.6931918888696105 0 0 0
3889 1297 2 -0.83 28.278001676224896 1.909135104634136 43.61741676495194 0 0 -1
3891 1297 1 0.415 28.61940582763842 1.924161371354357 1.4211946370006454 0 0 0
4862 1621 1 0.415 24.66886382530562 1.763477737897471 3.90515615921088 0 0 0
4969 1657 2 -0.83 28.428927967123993 1.7019327937698585 3.3177137558445744 0 0 0
4970 1657 1 0.415 29.21523719077112 1.9456198119941563 3.8062287521542233 0 0 0
4971 1657 1 0.415 27.803782455280935 2.402444907660442 3.504230048957627 0 0 0
6049 2017 2 -0.83 26.69232751116393 5.374625390656234 3.478422373300257 0 0 0
6050 2017 1 0.415 27.550814098850037 5.785713086889687 3.58001053479329 0 0 0
6051 2017 1 0.415 26.081855998071198 5.990441684396308 3.8838940672747886 0 0 0
757 253 2 -0.83 30.772733012445194 2.5074333323829903 4.254120169197103 0 0 0
759 253 1 0.415 31.04065031346191 2.7082958020129415 5.150884940328261 0 0 0
2810 937 1 0.415 26.329709314610724 4.572223779846449 43.670276795798216 0 0 -1
758 253 1 0.415 30.86433793316804 3.3367000916469696 3.7848253270713212 0 0 0
1731 577 1 0.415 28.882875716819047 6.421907027649696 5.187414733512766 0 0 0
1730 577 1 0.415 29.11557948278574 7.37541740084158 4.034694557123396 0 0 0
8226 2742 1 0.415 26.606787520899637 2.5797951888370965 43.11769146746954 0 0 0
6159 2053 1 0.415 30.081912245417406 5.423269410764823 3.533779977137931 0 0 0
6157 2053 2 -0.83 30.80160928957688 4.852649329075051 3.264073940925979 0 0 0
2917 973 2 -0.83 32.534591262837125 4.343774477053355 1.2501388906638162 0 0 0
2918 973 1 0.415 32.38656038967111 3.4791224417555147 0.8670250963703678 0 0 0
2919 973 1 0.415 31.780260780094757 4.485118715087335 1.8222576409784284 0 0 0
865 289 2 -0.83 37.881984950062524 2.8928625294380863 4.48747999554603 0 0 0
866 289 1 0.415 37.44915074623227 3.5882630100240966 3.9921163052610993 0 0 0
867 289 1 0.415 37.37189126510932 2.819646131387792 5.294174643970574 0 0 0
1837 613 2 -0.83 33.413687067134504 5.949731998501953 4.24363235470208 0 0 0
1839 613 1 0.415 33.25866052795878 6.042736134087169 5.183648025386045 0 0 0
3025 1009 2 -0.83 36.80508215766852 4.740595296526988 0.8016137382631929 0 0 0
3027 1009 1 0.415 36.43617315157896 4.705238749988482 1.6842056796597618 0 0 0
3997 1333 2 -0.83 32.21132323672116 2.2968964544068147 42.47550703249229 0 0 -1
3999 1333 1 0.415 33.12726250997013 2.450808966535739 42.243820509074254 0 0 -1
5077 1693 2 -0.83 34.34288037313031 2.369810329545846 1.704112529195119 0 0 0
5078 1693 1 0.415 33.77469760181828 1.7382980956161882 2.1453302760282247 0 0 0
5079 1693 1 0.415 34.7600975353135 2.8554181406844883 2.4157496337237756 0 0 0
6158 2053 1 0.415 31.593023726327527 5.342363451704779 3.48802871126491 0 0 0
6265 2089 2 -0.83 35.73439972240159 4.63232709895926 3.393931021356438 0 0 0
6266 2089 1 0.415 36.3229076435701 5.090070625847241 3.9942990388605497 0 0 0
6267 2089 1 0.415 34.86285824776516 4.759022913608782 3.7689991553623567 0 0 0
1838 613 1 0.415 33.435782794985776 6.84815351648329 3.9139916142692113 0 0 0
1928 643 1 0.415 31.559493952109722 46.511200592915415 3.994368660555745 0 0 0
3026 1009 1 0.415 36.81814522847359 3.828865713094814 43.6006396361345 0 0 -1
8441 2814 1 0.415 35.614891468589775 2.318595922315205 43.692098959394556 0 0 0
5187 1729 1 0.415 39.898112939283735 2.2001095070182526 3.9077874491230986 0 0 0
4107 1369 1 0.415 39.91118207176481 0.948136443155394 2.0957028568899925 0 0 0
5185 1729 2 -0.83 40.27690711371694 1.361462819632961 3.64416048690901 0 0 0
973 325 2 -0.83 41.844656455240774 4.257681057701481 4.1806793313990855 0 0 0
974 325 1 0.415 41.37589131660707 5.0138821696274505 3.827505734967459 0 0 0
975 325 1 0.415 41.80417603327164 4.372236138385603 5.130179691380223 0 0 0
1945 649 2 -0.83 36.97745415734731 6.054892418818004 5.089613149852904 0 0 0
1947 649 1 0.415 37.57071849836968 6.2831599245372205 5.8053252760578475 0 0 0
2053 685 2 -0.83 43.57996667860654 7.141053956354918 4.694063128221015 0 0 0
2055 685 1 0.415 43.545981683800136 7.205019391286379 5.648560857203626 0 0 0
3133 1045 2 -0.83 40.921292760916586 5.738389948279285 1.0565233467851638 0 0 0
3135 1045 1 0.415 40.63509377887234 5.94574915626145 1.9461326818017886 0 0 0
4213 1405 2 -0.83 43.04796874556287 1.8406599767537126 1.007676848737419 0 0 0
4215 1405 1 0.415 43.015634943376845 1.7251439724625846 1.9573731379371748 0 0 0
5186 1729 1 0.415 41.21112279576079 1.450093671844635 3.833099889952587 0 0 0
5293 1765 2 -0.83 43.425679490179554 2.265366986251067 3.8736132341345653 0 0 0
5294 1765 1 0.415 0.2596432392162842 2.5697590979945053 4.277101543199668 1 0 0
5295 1765 1 0.415 42.82894381694697 3.0104906697974885 3.9443924004949467 0 0 0
6373 2125 2 -0.83 39.757503765126614 6.070423679386199 3.5955646504650356 0 0 0
6374 2125 1 0.415 39.29309258307742 6.903730061750981 3.516601371958036 0 0 0
6375 2125 1 0.415 39.28464841912269 5.596004563342947 4.279411707055252 0 0 0
7453 2485 2 -0.83 43.50968444261036 7.0854178474484275 7.3642115318789285 0 0 0
8549 2850 1 0.415 40.25985129329446 2.4695086205398082 43.68858791214117 0 0 0
1082 361 1 0.415 3.3379732720113884 7.931828464439463 4.522117847344758 0 0 0
19 7 2 -0.83 0.8217354541040236 10.958005510147839 4.774245818597484 0 0 0
20 7 1 0.415 0.798720379470772 11.668416513323125 4.133075804816963 0 0 0
21 7 1 0.415 1.381772232819434 11.287274187917848 5.47727741569484 0 0 0
127 43 2 -0.83 5.013275014294725 10.910362850002137 4.429706847639442 0 0 0
128 43 1 0.415 4.93659371115254 11.783979417755432 4.046005752891234 0 0 0
129 43 1 0.415 5.308807669576473 11.067242693103184 5.326568945794941 0 0 0
2181 727 1 0.415 0.5265074018209492 12.87214767623309 1.726275970846167 0 0 0
2287 763 2 -0.83 4.622228634889144 13.429226511891711 0.9605971362854442 0 0 0
2289 763 1 0.415 4.728955539329423 13.451319245918063 1.9116143590952197 0 0 0
3261 1087 1 0.415 2.7290019414411133 9.546158823346568 2.0674879512418434 0 0 0
4339 1447 2 -0.83 2.8405682699840775 9.281690614397398 3.8814954973586047 0 0 0
4340 1447 1 0.415 3.5929162446098966 9.840183195785972 4.077380733080296 0 0 0
4341 1447 1 0.415 2.099030719653788 9.7245082196527 4.294226750890218 0 0 0
5419 1807 2 -0.83 0.26716726809076685 13.037204015551483 3.414800431570611 0 0 0
5420 1807 1 0.415 0.7535739958285834 13.612657530277136 4.005202163935847 0 0 0
5527 1843 2 -0.83 5.378554277054157 13.414503930148244 3.5792856970639706 0 0 0
5529 1843 1 0.415 4.939612131152471 14.242869293568932 3.385757715501654 0 0 0
7579 2527 2 -0.83 2.299554779348287 11.580281587244166 6.844080747390836 0 0 0
7581 2527 1 0.415 2.876022131630097 11.056580393062648 7.400619075246373 0 0 0
6499 2167 2 -0.83 3.5553826340170978 14.087970853083792 6.791518010526559 0 0 0
6500 2167 1 0.415 3.2715968880156416 13.233376993209637 6.466791279517293 0 0 0
5528 1843 1 0.415 6.280201654921787 13.662679347784408 3.783622272919291 0 0 0
7580 2527 1 0.415 1.5012670274042221 11.68948584345627 7.360920723304117 0 0 0
1297 433 2 -0.83 11.846128613718289 6.976753664166072 4.2591707771244245 0 0 0
4449 1483 1 0.415 6.479427612763869 9.876976177898332 4.1130041962244555 0 0 0
1298 433 1 0.415 11.649588303188452 7.8608464829844635 3.9492284403295503 0 0 0
235 79 2 -0.83 9.467969748542242 11.062754562051612 4.335145201562655 0 0 0
236 79 1 0.415 9.516189918525257 11.877385760756342 3.834782031152295 0 0 0
237 79 1 0.415 9.564607597233493 11.335477852865045 5.247611962499067 0 0 0
1190 397 1 0.415 7.114260824978699 7.564294049985895 4.027956493875546 0 0 0
2397 799 1 0.415 9.259856606343327 13.509371727423298 1.4929676933665044 0 0 0
3367 1123 2 -0.83 6.874737400110765 9.656819559299311 1.0386667821710653 0 0 0
3369 1123 1 0.415 6.85433450806387 9.439908760245833 1.970785814527949 0 0 0
3475 1159 2 -0.83 11.267191904271085 9.378433930594225 0.8876723241084398 0 0 0
3477 1159 1 0.415 11.457208772478136 9.2500635129926 1.8170415110238214 0 0 0
4447 1483 2 -0.83 7.12150635151524 9.331101050303014 3.659057353761119 0 0 0
4448 1483 1 0.415 7.9697678652500485 9.66966994275954 3.9456511882953738 0 0 0
4555 1519 2 -0.83 11.532339718032173 9.519903496266618 3.7450829272891055 0 0 0
4557 1519 1 0.415 10.810545673562594 10.101040927315301 3.9850936033427034 0 0 0
5635 1879 2 -0.83 9.57269556804843 13.530695274723692 3.280917063614693 0 0 0
5636 1879 1 0.415 10.371994158094905 14.047423147121139 3.3830277300238314 0 0 0
5637 1879 1 0.415 8.98299397368376 13.864685177411706 3.956946122646901 0 0 0
3476 1159 1 0.415 11.464931835717358 8.53360375974857 43.573740366722745 0 0 -1
4556 1519 1 0.415 12.321962057086356 10.017829641212025 3.9569285613364515 0 0 0
343 115 2 -0.83 13.964322006391765 10.84618767672539 4.661285103025354 0 0 0
344 115 1 0.415 13.943771710290031 11.713125315347172 4.255934235759247 0 0 0
345 115 1 0.415 13.71001922186509 11.000572731941375 5.571124556035217 0 0 0
451 151 2 -0.83 18.447574034734522 10.564001544025231 4.10726573078505 0 0 0
452 151 1 0.415 18.08376236169827 11.390562475715104 3.7898534177823584 0 0 0
453 151 1 0.415 18.593240381423737 10.70918630035782 5.042153513826197 0 0 0
1406 469 1 0.415 15.86800059417412 8.019125202111137 3.954928010239419 0 0 0
2505 835 1 0.415 13.613247091738451 13.320492777958727 1.9488079532354448 0 0 0
2611 871 2 -0.83 18.45239462244772 13.242033024749647 0.7186322047619859 0 0 0
2613 871 1 0.415 18.34758314042552 13.082535839879206 1.6566554811181093 0 0 0
3583 1195 2 -0.83 15.087541865090852 9.514076872919272 43.689018270532216 0 0 -1
3585 1195 1 0.415 15.311271693365876 9.459603541895921 1.5277658501417324 0 0 0
4663 1555 2 -0.83 15.747670780239773 9.69554816861053 3.1955323305096863 0 0 0
4664 1555 1 0.415 16.662263612167905 9.775895769847237 3.466413619733613 0 0 0
4665 1555 1 0.415 15.259793503475148 10.203104118282202 3.844127103517009 0 0 0
5743 1915 2 -0.83 13.627867458408641 13.222834583574892 3.5593361545874114 0 0 0
5745 1915 1 0.415 12.89026736169712 13.800197446533527 3.756594074502048 0 0 0
5851 1951 2 -0.83 17.813219910507236 13.118751335180702 3.385769821138142 0 0 0
2503 835 2 -0.83 13.677505758778711 13.47684335983908 1.0066095758002562 0 0 0
2612 871 1 0.415 18.05848592598956 12.476819422373302 43.38997627696814 0 0 -1
5852 1951 1 0.415 18.53966598775448 13.591905932535942 3.7916187060017186 0 0 0
2504 835 1 0.415 13.407253888190336 12.649982853394675 43.69752379454957 0 0 -1
6839 2280 1 0.415 15.480678364988195 14.01017095010783 43.60830918901979 0 0 0
1621 541 2 -0.83 25.092839688049043 7.056088298331088 4.791347412376936 0 0 0
1623 541 1 0.415 25.183124693411607 7.060002547145192 5.744314240639305 0 0 0
1514 505 1 0.415 20.398435565021558 8.018225667088426 3.954232119507781 0 0 0
559 187 2 -0.83 22.875740612473297 10.910897385234689 4.712698680857187 0 0 0
560 187 1 0.415 22.849288782062523 11.821930937003145 4.420071567932347 0 0 0
561 187 1 0.415 22.801017171960257 10.962637482952738 5.665616231246812 0 0 0
2719 907 2 -0.83 22.793594120042922 13.700693206293385 0.8896519978149282 0 0 0
2721 907 1 0.415 22.99633579055308 13.936123584635903 1.7950694867308195 0 0 0
3691 1231 2 -0.83 18.85852930216137 9.6122192560567 0.7302237400627383 0 0 0
3693 1231 1 0.415 19.592709988264787 9.640137604610755 1.343829275296828 0 0 0
4771 1591 2 -0.83 20.943178927436318 9.769895936340621 3.2260756823082213 0 0 0
4772 1591 1 0.415 21.636633785643518 10.212184740196594 3.7157831943552866 0 0 0
4773 1591 1 0.415 20.1320828262208 10.059785642442522 3.64368741101957 0 0 0
4881 1627 1 0.415 24.087182344565118 10.004594455770146 4.165170143011368 0 0 0
5959 1987 2 -0.83 22.624148514787787 13.340982062543945 3.701507183109311 0 0 0
1622 541 1 0.415 25.299613231298874 7.952569214945599 4.527000757428051 0 0 0
4879 1627 2 -0.83 24.92664336908497 9.55391668969448 4.072935668855224 0 0 0
5960 1987 1 0.415 23.427760582040907 13.774130911596087 3.989434574745516 0 0 0
5961 1987 1 0.415 21.920079918991984 13.909978040627365 4.012704036914733 0 0 0
3799 1267 2 -0.83 25.416511253285133 9.549471794392453 1.388402657646974 0 0 0
3800 1267 1 0.415 24.998190500049883 8.764036178706181 1.035683074020571 0 0 0
3801 1267 1 0.415 25.636051033553322 9.319563500960847 2.291318447369229 0 0 0
667 223 2 -0.83 27.425171732198635 10.452224249846102 5.072720556789966 0 0 0
668 223 1 0.415 27.447565251400917 11.334050874731583 4.700977615318468 0 0 0
669 223 1 0.415 27.246549099837384 10.58850028475148 6.003223247622503 0 0 0
2827 943 2 -0.83 27.14659336010557 13.038997236418583 1.101860015236414 0 0 0
2829 943 1 0.415 26.82352344724539 12.979058654893196 2.000940475700716 0 0 0
3907 1303 2 -0.83 29.608395830306137 8.630808323111696 0.9870273176290955 0 0 0
3909 1303 1 0.415 29.70667914673598 8.526670174363229 1.9334987151299965 0 0 0
4880 1627 1 0.415 25.527490380621323 10.049431608234737 4.6294968009266775 0 0 0
4987 1663 2 -0.83 29.183956093373563 8.956212606415201 3.6032476551142962 0 0 0
4988 1663 1 0.415 30.01642350885617 9.192512064997386 4.012482351507858 0 0 0
4989 1663 1 0.415 28.53442172685447 9.499778828097522 4.049289548358289 0 0 0
6067 2023 2 -0.83 26.858599834587164 13.17367618968384 3.95382630162009 0 0 0
6068 2023 1 0.415 27.60012556860963 13.758614872646891 4.109706972020746 0 0 0
6069 2023 1 0.415 26.090776921981924 13.743999674334404 3.99244695531161 0 0 0
6177 2059 1 0.415 30.122152925345084 13.391766137791747 3.719028929626069 0 0 0
2828 943 1 0.415 27.495035850854897 12.167560874753994 0.9134482559879379 0 0 0
776 259 1 0.415 31.08009607340839 11.18912144552177 4.148874729321795 0 0 0
2937 979 1 0.415 31.574980638888388 12.340350293082855 1.9704120122128919 0 0 0
6175 2059 2 -0.83 30.897244237457485 12.839102424817353 3.6184867081183345 0 0 0
3908 1303 1 0.415 29.342473208309126 7.765200537947724 0.6766713964183956 0 0 0
2935 979 2 -0.83 31.819411554595916 12.434221052672717 1.0496762902509293 0 0 0
775 259 2 -0.83 31.38922850589282 10.332444005511022 4.443583706210523 0 0 0
777 259 1 0.415 31.65884171541552 10.473773050060005 5.3511338581896855 0 0 0
883 295 2 -0.83 35.681415337716295 9.450750810702408 4.550465356829449 0 0 0
884 295 1 0.415 35.72719048325413 10.358091518741347 4.248886291118183 0 0 0
885 295 1 0.415 35.412641466890655 9.515715099883904 5.466900161691512 0 0 0
3043 1015 2 -0.83 35.513633194262965 11.996832353754684 1.2824526323712746 0 0 0
3045 1015 1 0.415 35.74232144748258 11.85624577185591 2.201283169585495 0 0 0
4017 1339 1 0.415 33.29585557389479 8.464943006364363 1.726879129422563 0 0 0
5095 1699 2 -0.83 33.06634891664279 8.676330832004094 3.428364871703265 0 0 0
5096 1699 1 0.415 33.889905438515555 8.944635382981778 3.8358937722958024 0 0 0
5097 1699 1 0.415 32.4069555376455 9.249112258646392 3.820071780318287 0 0 0
6283 2095 2 -0.83 35.83459608050511 12.204752809883303 3.8674785579609847 0 0 0
6284 2095 1 0.415 36.53033014286908 12.86162074056161 3.839351633000226 0 0 0
6285 2095 1 0.415 35.02497738899499 12.7141194146657 3.9045690928788885 0 0 0
6176 2059 1 0.415 31.626582680744733 13.397142915299186 3.888613941804981 0 0 0
3044 1015 1 0.415 35.58492504039431 11.130265503706616 0.882087999634193 0 0 0
8459 2820 1 0.415 34.75718834618971 9.371960034695043 43.28521828176167 0 0 0
1946 649 1 0.415 37.175561394933425 6.690401512706322 4.401722045677975 0 0 0
5421 1807 1 0.415 43.33264344226724 13.30391359390073 3.5183109083748283 -1 0 0
5205 1735 1 0.415 37.33336151815674 8.468164219088727 4.197293686860977 0 0 0
991 331 2 -0.83 40.02704682748365 9.726865890739838 4.860542205083832 0 0 0
992 331 1 0.415 39.95692125526143 10.55573733143301 4.386868242421372 0 0 0
993 331 1 0.415 40.14497844882444 9.982514670393613 5.775445648023662 0 0 0
2054 685 1 0.415 43.35163624280513 8.018297577046251 4.38645731088984 0 0 0
3151 1051 2 -0.83 39.525946212495086 12.48124751874724 0.9127706381027938 0 0 0
3153 1051 1 0.415 39.534269173903645 12.020596229900866 1.7518436836076454 0 0 0
4125 1375 1 0.415 37.95891799410199 8.448325103463283 2.135961803108352 0 0 0
4233 1411 1 0.415 42.36365482798256 9.55131874906699 2.199231830401835 0 0 0
5203 1735 2 -0.83 38.152480165510006 8.162027418286963 3.807887218442948 0 0 0
5204 1735 1 0.415 38.82947607925744 8.698869978145563 4.219941939191514 0 0 0
5311 1771 2 -0.83 42.874851169655656 9.522109199802081 3.8302715146635884 0 0 0
5312 1771 1 0.415 43.52631432798326 10.089187528233353 4.242982567500674 0 0 0
5313 1771 1 0.415 42.064723483675124 9.699835122339003 4.308203608205428 0 0 0
6391 2131 2 -0.83 39.56872707825259 12.116597073046107 3.766567405701159 0 0 0
6392 2131 1 0.415 40.08883147161277 12.913777065284581 3.8680954385462187 0 0 0
6393 2131 1 0.415 38.676081820411056 12.38269811344183 3.9872190353824903 0 0 0
4123 1375 2 -0.83 37.58613935517535 8.617602339003483 1.2706908807852368 0 0 0
3152 1051 1 0.415 39.54983718077852 11.784865095291801 43.346808698732545 0 0 -1
7473 2491 1 0.415 42.814162025207516 12.543076000808608 7.052210249135568 0 0 0
6501 2167 1 0.415 4.32544898416279 13.897504184710709 7.327272362180187 0 0 0
37 13 2 -0.83 0.17901973802468252 18.150152255894763 4.468666255554177 0 0 0
38 13 1 0.415 -0.12341433196676238 18.95280853011615 4.0437085948541185 0 0 0
39 13 1 0.415 -0.048683858895033905 18.266519377652763 5.391120714611896 0 0 0
145 49 2 -0.83 4.690845991337137 17.92734402411122 4.334371401041014 0 0 0
146 49 1 0.415 4.849473687211825 18.829461884365976 4.056283133469752 0 0 0
147 49 1 0.415 4.572858010164719 17.98570571124591 5.282519723434576 0 0 0
1099 367 2 -0.83 2.004796746617155 14.57121587474879 4.489339191386813 0 0 0
1100 367 1 0.415 2.1376268817864057 15.39431306993283 4.019041804163914 0 0 0
1101 367 1 0.415 2.3006352061664206 14.753945190642153 5.381192353972063 0 0 0
3279 1093 1 0.415 2.176837429948408 16.86321289638923 1.6115111493596008 0 0 0
4357 1453 2 -0.83 2.30056258051095 16.999863668758625 3.417342735112385 0 0 0
4358 1453 1 0.415 3.0748468527574273 17.389497253748562 3.823522500428965 0 0 0
4359 1453 1 0.415 1.5687195922884294 17.522251630734637 3.7457161803124683 0 0 0
4467 1489 1 0.415 5.971080284721325 17.113889090328314 3.5428910610581097 0 0 0
7705 2569 2 -0.83 4.256557568313994 17.6557916406631 6.9325412706833625 0 0 0
2198 733 1 0.415 0.48199206107189396 20.106900535308228 43.64912281061579 0 0 -1
253 85 2 -0.83 8.430386184534715 18.246323804624694 3.9414046772787987 0 0 0
254 85 1 0.415 8.74080083121944 19.12987400740744 3.7431768932328593 0 0 0
255 85 1 0.415 8.740412799197339 18.076990601851005 4.8310800521628545 0 0 0
1207 403 2 -0.83 7.689497191134317 14.57730160589407 4.960109444424612 0 0 0
1208 403 1 0.415 7.3144818538529774 15.427018005306914 4.728467482605968 0 0 0
1209 403 1 0.415 7.565500050277551 14.510319614848427 5.906920189342019 0 0 0
1315 439 2 -0.83 11.740487046726765 15.058101617839794 4.181540894517505 0 0 0
1316 439 1 0.415 11.838904520745974 15.984801574425497 3.9627860228359175 0 0 0
1317 439 1 0.415 11.685866171486676 15.041557468199406 5.137080174463561 0 0 0
3387 1129 1 0.415 6.549182473073516 16.951271050365705 1.4479140758298825 0 0 0
3495 1165 1 0.415 11.098934951886214 17.577673839670506 1.233648636487858 0 0 0
4465 1489 2 -0.83 6.590749966889266 16.57020322523188 3.0563444236944752 0 0 0
4466 1489 1 0.415 7.440205139320752 16.98757831541963 3.199649720591482 0 0 0
4573 1525 2 -0.83 10.707946557232043 17.465786683162072 2.817812605338638 0 0 0
4575 1525 1 0.415 9.80843100677816 17.51058122547191 3.142123698803848 0 0 0
2415 805 1 0.415 9.176300295556155 20.497036125929863 1.2739293976785662 0 0 0
6607 2203 2 -0.83 7.8744484973869575 14.846435912975101 7.739504716134466 0 0 0
7813 2605 2 -0.83 8.924247297843873 17.51921426175552 6.639204355863875 0 0 0
7814 2605 1 0.415 9.71720310120095 17.417338484506338 7.165659368716124 0 0 0
7815 2605 1 0.415 8.509976336054871 16.656506059847693 6.659858602485732 0 0 0
5744 1915 1 0.415 14.372452838624106 13.622559763407528 4.008919130633709 0 0 0
5853 1951 1 0.415 17.030312446454847 13.588369760264523 3.6735664977897318 0 0 0
4574 1525 1 0.415 11.200443355447863 18.049615691363996 3.394790127176902 0 0 0
361 121 2 -0.83 12.83627846034537 18.457379185665626 4.188473257071889 0 0 0
362 121 1 0.415 13.218171566402555 19.291304697792675 3.9145419209868955 0 0 0
363 121 1 0.415 13.42235800518398 18.139053380738247 4.875125941690559 0 0 0
470 157 1 0.415 18.098639382854476 18.89741352450497 4.196513613109008 0 0 0
1423 475 2 -0.83 15.701352896625172 14.324237877504052 4.61244854328188 0 0 0
1424 475 1 0.415 15.778495831846335 15.19525543283026 4.222974736679463 0 0 0
1425 475 1 0.415 16.01086205419577 14.435064234143619 5.511466933165597 0 0 0
3603 1201 1 0.415 15.34817131703949 17.237824976354133 1.7466999399699092 0 0 0
4681 1561 2 -0.83 15.901442786468046 16.89860646749167 3.68994133725475 0 0 0
4682 1561 1 0.415 16.77570467832117 17.231864832606522 3.8922220093348963 0 0 0
4683 1561 1 0.415 15.314281802980348 17.41368982772661 4.2433341213348825 0 0 0
6840 2280 1 0.415 16.99088930413134 14.105116976100664 43.55988352910927 0 0 0
3601 1201 2 -0.83 15.59941334767576 17.19805278913012 0.8238737980036552 0 0 0
3602 1201 1 0.415 15.662108906279274 16.26226922004254 43.72271170635798 0 0 -1
6838 2280 2 -0.83 16.194926885432054 14.609908016284601 43.39272400973731 0 0 0
469 157 2 -0.83 18.121075655592 18.03802825841037 4.617543387557858 0 0 0
471 157 1 0.415 18.34724535657008 18.223181175134165 5.529068553996788 0 0 0
577 193 2 -0.83 22.24070476417368 18.258305185188952 4.022832260896453 0 0 0
578 193 1 0.415 22.504473610068533 19.115985601455023 3.6894814289609554 0 0 0
579 193 1 0.415 22.237877805845926 18.361206765919626 4.974523264128774 0 0 0
1531 511 2 -0.83 19.91610751249481 14.32619827605967 4.57742896591463 0 0 0
1532 511 1 0.415 19.930816434709048 15.190631008931483 4.166512726587676 0 0 0
1533 511 1 0.415 20.049597795263733 14.50101985592706 5.509056690684556 0 0 0
1639 547 2 -0.83 24.899803624688087 14.958151492724548 4.248754601608441 0 0 0
1640 547 1 0.415 24.997570471132903 15.881310896729957 4.01523625550955 0 0 0
1641 547 1 0.415 24.919145889012523 14.949324685061033 5.205760570149879 0 0 0
3711 1237 1 0.415 20.374873343387605 16.958370056575436 1.6637462132237408 0 0 0