LAMMPS data file via write_data, version 29 Sep 2021, timestep = 20000

8640 atoms
2 atom types
5760 bonds
1 bond types
2880 angles
1 angle types

-0.75694412 44.165558 xlo xhi
0.38127473 47.066074 ylo yhi
0.17900842 44.193867 zlo zhi

Masses

1 1.0079401
2 15.9994

Pair Coeffs # lj/cut/coul/long

1 0 0
2 0.102 3.188

Bond Coeffs # harmonic

1 450 0.9572

Angle Coeffs # harmonic

1 55 104.52

Atoms # full

1 1 2 -0.83 0.691382899053732 2.7008762523672267 4.020037611803496 0 0 0
2 1 1 0.415 0.5606334216585264 3.6215900303021646 3.793272196839012 0 0 0
3 1 1 0.415 0.6049395636502511 2.673796719481768 4.972941641039908 0 0 0
109 37 2 -0.83 4.566091190120551 2.4692312385893707 4.155392370335394 0 0 0
110 37 1 0.415 4.664431419740012 3.381783259100535 3.883712688872719 0 0 0
111 37 1 0.415 4.548092264471156 2.5041735914237693 5.111785025491973 0 0 0
1081 361 2 -0.83 2.3556423042061763 6.7877770379268165 3.86642017552413 0 0 0
1083 361 1 0.415 2.443295792743567 6.764710572918533 4.8193192490781085 0 0 0
2163 721 1 0.415 0.2376098052679737 5.384069780733652 1.6385382756108846 0 0 0
2271 757 1 0.415 4.345559462539405 4.970688153610124 1.5862270370397353 0 0 0
3243 1081 1 0.415 2.2498111918590324 1.2001009880230677 1.4444779271883672 0 0 0
4321 1441 2 -0.83 2.5673023263485497 0.8951557466473411 3.2349057639163705 0 0 0
4322 1441 1 0.415 3.3192495415300174 1.3683544092052398 3.591122344279596 0 0 0
4323 1441 1 0.415 1.823373211396545 1.4782833466343228 3.3857815897332038 0 0 0
5401 1801 2 -0.83 0.18221947276359246 5.393938155677751 3.177378420635923 0 0 0
5402 1801 1 0.415 0.9756762437542854 5.854164245324593 3.450965955563206 0 0 0
5509 1837 2 -0.83 4.461075383415707 5.081641225074425 3.2975463135847867 0 0 0
5511 1837 1 0.415 3.7693573392639363 5.670664529636435 3.598892516905502 0 0 0
2161 721 2 -0.83 0.22132722719128964 5.399337541213352 0.6815985627589182 0 0 0
5510 1837 1 0.415 5.273490434185028 5.499717065595287 3.5828991077428016 0 0 0
2269 757 2 -0.83 4.38127856866874 5.203894761522296 0.6585575572558057 0 0 0
3241 1081 2 -0.83 2.0856735792049435 1.2813675682297445 0.5049639958223668 0 0 0
2162 721 1 0.415 0.3743140161209639 4.490110106176119 0.42443644663924596 0 0 0
5403 1801 1 0.415 -0.5187053592170209 5.8001705023349475 3.687193583767504 0 0 0
2270 757 1 0.415 4.3443630020415975 4.365218990299566 0.19867492895825437 0 0 0
4431 1477 1 0.415 5.997725117081891 1.261270622923303 3.4761437418965255 0 0 0
217 73 2 -0.83 8.627326790322837 2.376849090663932 4.483693250105013 0 0 0
218 73 1 0.415 8.777158293451416 3.18898311023685 3.9997297229359794 0 0 0
219 73 1 0.415 8.715965427664667 2.625872023280986 5.4036729300379545 0 0 0
1189 397 2 -0.83 6.711173235551086 6.5105538979157425 4.003586923665855 0 0 0
1191 397 1 0.415 6.892658821169647 6.734840257420622 4.916270029313599 0 0 0
1297 433 2 -0.83 11.170830229789685 6.326726849263265 4.3904671144824094 0 0 0
1299 433 1 0.415 11.212143096599515 6.4647884681665735 5.336756751278706 0 0 0
2379 793 1 0.415 8.942256486784688 4.886673881114094 1.5223545281425026 0 0 0
3351 1117 1 0.415 6.943590798945092 1.3318174067960329 1.416847626242899 0 0 0
3459 1153 1 0.415 11.306724587865485 0.9984173953761672 1.2175956618803874 0 0 0
4429 1477 2 -0.83 6.77289028973555 0.7392254325807301 3.269214732943931 0 0 0
4430 1477 1 0.415 7.481799581617158 1.1584960462708707 3.756956066968609 0 0 0
4537 1513 2 -0.83 11.196847024049175 1.072926987150984 3.347284655826165 0 0 0
4539 1513 1 0.415 10.38794455783085 1.4446522153589139 3.6990359904482033 0 0 0
5617 1873 2 -0.83 9.003094268716206 4.785721765093895 3.651085696174136 0 0 0
5618 1873 1 0.415 9.84088076099147 5.134798574260749 3.9552090508970537 0 0 0
5619 1873 1 0.415 8.387006620512834 5.509898541757809 3.7617014545781458 0 0 0
4538 1513 1 0.415 11.893902561534679 1.5910012634877602 3.7497079068589074 0 0 0
3349 1117 2 -0.83 6.85588837743409 1.4429543317925777 0.470175185826153 0 0 0
325 109 2 -0.83 13.641008321422786 2.5085697889520606 4.5230795713850664 0 0 0
326 109 1 0.415 13.641443001446374 3.397334857323727 4.167652628207979 0 0 0
327 109 1 0.415 13.852949693725552 2.6205953114668934 5.4497742261614475 0 0 0
433 145 2 -0.83 17.76659906013626 2.610180030826273 4.262390258120664 0 0 0
434 145 1 0.415 17.654818115336592 3.523374834607371 3.9981704412579466 0 0 0
435 145 1 0.415 18.080102551421 2.6583087937190504 5.16551318664097 0 0 0
1405 469 2 -0.83 15.722632527178865 6.451217699525249 4.348048833045401 0 0 0
1407 469 1 0.415 15.584405628144491 6.638387382342606 5.276538291463631 0 0 0
2487 829 1 0.415 13.6064824118708 4.85497895059103 1.6714852759992203 0 0 0
2595 865 1 0.415 17.76588424336867 5.214706244955114 1.6676206963418279 0 0 0
3567 1189 1 0.415 15.825451849593867 1.451043509223602 1.2983261130289026 0 0 0
4645 1549 2 -0.83 15.835618364254184 1.2942340326956092 2.950466426325864 0 0 0
4646 1549 1 0.415 16.553817365233392 1.6916772509117024 3.4428696390748246 0 0 0
4647 1549 1 0.415 15.043810066213268 1.5930372900885985 3.397666686637385 0 0 0
5725 1909 2 -0.83 13.46430008508404 5.027462404507818 3.3462869267826396 0 0 0
5726 1909 1 0.415 14.224210062192514 5.510522459708014 3.6709739445447487 0 0 0
5727 1909 1 0.415 12.711324531723962 5.546528246685999 3.6288295206822343 0 0 0
5833 1945 2 -0.83 17.760495020889966 5.152779266899924 3.7040385236567825 0 0 0
5835 1945 1 0.415 17.007545914741957 5.674405175342759 3.981898013167078 0 0 0
3565 1189 2 -0.83 15.783085939616441 1.518725813725998 0.34446235123318264 0 0 0
2593 865 2 -0.83 17.965942492807496 5.433111260121369 0.7573966629919772 0 0 0
2485 829 2 -0.83 13.564650691379867 5.078304760547858 0.7416425311734748 0 0 0
2486 829 1 0.415 13.604500133374891 4.235139195991841 0.290293782701462 0 0 0
5834 1945 1 0.415 18.52085726730143 5.645524779843637 4.012717894174771 0 0 0
541 181 2 -0.83 22.11129136265008 2.941434450202201 4.056510514867345 0 0 0
542 181 1 0.415 22.498789662036867 3.7362617299884753 3.6900047120428185 0 0 0
543 181 1 0.415 22.125358377280058 3.0821008730263806 5.003213697932944 0 0 0
1513 505 2 -0.83 20.9520498523952 6.534178171712213 4.230052773358957 0 0 0
2703 901 1 0.415 22.72435558074072 4.877489707985041 1.4059830817328174 0 0 0
3673 1225 2 -0.83 20.018190578974554 1.4278800360154962 0.5947823163219734 0 0 0
3675 1225 1 0.415 20.190310993995638 1.2933371032919567 1.5267182674021709 0 0 0
3783 1261 1 0.415 24.77422909028041 1.166838117935247 1.0395268674525784 0 0 0
4753 1585 2 -0.83 20.083180325513922 1.4205443925414165 3.270378154901658 0 0 0
4754 1585 1 0.415 20.859613821835765 1.9122913255735239 3.5378997805416437 0 0 0
4755 1585 1 0.415 19.34686917103216 1.9714153237420657 3.5361204007072793 0 0 0
4863 1621 1 0.415 23.751723914497354 1.7857452682998733 3.2223862269481516 0 0 0
5941 1981 2 -0.83 23.032628510303795 5.266616706264418 3.0352798811758537 0 0 0
5942 1981 1 0.415 23.765358242722144 5.810074535665224 3.325094593355861 0 0 0
5943 1981 1 0.415 22.25274805436813 5.749943931894158 3.3080675421114756 0 0 0
2701 901 2 -0.83 22.68838761437166 4.953130819571053 0.45245459877290245 0 0 0
4861 1621 2 -0.83 24.539221261961377 1.4117620926378345 2.827144083246624 0 0 0
1623 541 1 0.415 24.80565603538356 6.738336693493409 4.914407885220395 0 0 0
1515 505 1 0.415 20.890222407003538 6.562108942172599 5.184845462618078 0 0 0
1621 541 2 -0.83 25.05064131296451 6.717052428301417 3.9893343561518657 0 0 0
3674 1225 1 0.415 20.087283335025965 0.5544052793141057 0.20942548918286974 0 0 0
4862 1621 1 0.415 25.263347154369747 1.852584497186156 3.271609087301393 0 0 0
649 217 2 -0.83 26.717390747103227 2.4907042057674857 4.233334162659423 0 0 0
650 217 1 0.415 27.004500271680563 3.3009512097044573 3.8122643897701103 0 0 0
651 217 1 0.415 26.666952694387394 2.708718000605773 5.1640101687232045 0 0 0
1729 577 2 -0.83 29.53340038135441 6.641388961731216 4.045737518204788 0 0 0
1731 577 1 0.415 29.375558755430283 6.88862934717472 4.956885180012917 0 0 0
2811 937 1 0.415 27.546057613531747 4.997578499258625 1.3650388755691114 0 0 0
3891 1297 1 0.415 29.33177638611584 1.6038286136337792 1.2839957634746226 0 0 0
4969 1657 2 -0.83 29.10893943037557 1.541344138022061 3.0254213418848046 0 0 0
4970 1657 1 0.415 29.86283978339099 1.9091715943478376 3.4864734650918043 0 0 0
4971 1657 1 0.415 28.349017734419334 1.914571316570673 3.472022203110958 0 0 0
6049 2017 2 -0.83 27.579498183711316 4.977995825397147 3.140787817182884 0 0 0
6050 2017 1 0.415 28.338180467577423 5.479443792912725 3.439422993228584 0 0 0
6051 2017 1 0.415 26.824326373617144 5.477615498142058 3.451154632447602 0 0 0
6159 2053 1 0.415 30.913578874977627 5.643357412199408 3.5188557559817024 0 0 0
2809 937 2 -0.83 27.250556968248688 5.116685455776757 0.4624178356510623 0 0 0
8209 2737 2 -0.83 26.712947670002457 2.663275179878942 7.093582592694086 0 0 0
2810 937 1 0.415 27.036383292012946 4.233614134943716 44.17636692920609 0 0 -1
757 253 2 -0.83 31.509738925469364 2.3823791157565926 3.862593986560949 0 0 0
758 253 1 0.415 31.551396639341494 3.313739652600953 3.6456515391011086 0 0 0
2919 973 1 0.415 31.8569931266803 4.708682045678269 1.290301400995255 0 0 0
6157 2053 2 -0.83 31.59350614500592 5.013390757021201 3.279956678993193 0 0 0
759 253 1 0.415 31.629546870180313 2.3514656501589504 4.811763230799798 0 0 0
865 289 2 -0.83 36.371025936588175 2.5756010030089405 3.806243940164247 0 0 0
866 289 1 0.415 36.569741185297346 3.3983071938319815 3.359143712406058 0 0 0
867 289 1 0.415 36.254428645393574 2.823042563669424 4.723527748989853 0 0 0
1837 613 2 -0.83 34.05151689407641 6.126706788972023 3.8172964943383088 0 0 0
1839 613 1 0.415 33.8989573516341 6.393193848468636 4.723906711378185 0 0 0
3027 1009 1 0.415 36.689504197858355 5.1956043589134415 1.0525396138345473 0 0 0
5077 1693 2 -0.83 34.1716023685568 1.179099077086827 3.306720498163282 0 0 0
5078 1693 1 0.415 34.75251041061608 1.9028798144448476 3.5410688298904893 0 0 0
5079 1693 1 0.415 33.29178271902116 1.5535123461486426 3.3510367687425227 0 0 0
6158 2053 1 0.415 32.410962985968744 5.424390753358555 3.561159745256155 0 0 0
6265 2089 2 -0.83 36.52893816593252 5.124411426829932 2.716922397726778 0 0 0
6266 2089 1 0.415 37.224203101819676 5.620514781293218 3.1490334613459985 0 0 0
6267 2089 1 0.415 35.7277591893792 5.391995481533152 3.1671921629827566 0 0 0
3025 1009 2 -0.83 36.53228188464234 5.285634114300188 44.12750052461102 0 0 -1
3026 1009 1 0.415 36.26644172245642 4.4109545658002265 43.84378140909235 0 0 -1
5187 1729 1 0.415 37.98230923368605 1.5567217738459165 3.7132801200435708 0 0 0
1838 613 1 0.415 34.07190120201367 6.947928219386526 3.325959859985173 0 0 0
3999 1333 1 0.415 34.61963201854561 0.5390643994174771 1.6217797282706878 0 0 0
7361 2454 1 0.415 37.94426368312544 6.43185751152959 43.51796466477207 0 0 0
1945 649 2 -0.83 38.182360711731626 6.386448088842861 4.259613444617043 0 0 0
1947 649 1 0.415 38.09760825916111 6.295092824714136 5.208667224791565 0 0 0
973 325 2 -0.83 40.670631330056345 3.088539509469154 4.222734743659905 0 0 0
974 325 1 0.415 40.71474697345204 4.036281062237775 4.09596090830728 0 0 0
975 325 1 0.415 40.810195267102515 2.96525344292205 5.161645976140425 0 0 0
2053 685 2 -0.83 42.92156018772788 6.685069828003415 4.462310621479424 0 0 0
3135 1045 1 0.415 40.80681136613302 5.488639449222441 1.310863064282761 0 0 0
4107 1369 1 0.415 38.602181599158484 1.1378866493460165 1.3996099220597493 0 0 0
4215 1405 1 0.415 42.81485957944815 1.5615633009913246 1.4177161935018134 0 0 0
5185 1729 2 -0.83 38.83454487343614 1.2485127406291747 3.4051674030854713 0 0 0
5186 1729 1 0.415 39.41799485803825 1.9980285921676189 3.523674550599247 0 0 0
5293 1765 2 -0.83 42.95012315011295 1.7921675104152144 3.109652083271896 0 0 0
5294 1765 1 0.415 43.75992380064674 2.1339806769035805 3.488622409808172 0 0 0
5295 1765 1 0.415 42.25711550852574 2.3153482821417968 3.512459899774492 0 0 0
6373 2125 2 -0.83 40.85678928847316 5.582341012740319 3.117494955544695 0 0 0
6374 2125 1 0.415 41.56215385207078 6.11491742554526 3.484993319258839 0 0 0
6375 2125 1 0.415 40.055156798024136 6.047124254166061 3.357481895184688 0 0 0
2055 685 1 0.415 43.025052098762 6.8606503045576535 5.397560727447215 0 0 0
3133 1045 2 -0.83 40.83677253854721 5.619516354287715 0.3631260733051774 0 0 0
4213 1405 2 -0.83 42.724721662419036 1.6186853644254489 0.4664832745951585 0 0 0
4105 1369 2 -0.83 38.41246227741898 1.315618504732073 0.478388012463457 0 0 0
7362 2454 1 0.415 39.45006212398664 6.442056150757294 43.67404872902684 0 0 0
1082 361 1 0.415 2.3654193309571245 7.719438061459495 3.647002793861214 0 0 0
19 7 2 -0.83 -0.14773934369952113 10.646310081401165 4.144432326860742 0 0 0
20 7 1 0.415 0.13530383614310154 11.470094720276613 3.7475730684436046 0 0 0
21 7 1 0.415 -0.07905902743800473 10.797962398337487 5.087043824735212 0 0 0
127 43 2 -0.83 5.041538538320428 10.61533981832487 3.8356114954979437 0 0 0
128 43 1 0.415 4.9223046327485775 11.51891088661962 3.543080402321754 0 0 0
129 43 1 0.415 4.863543450236778 10.641987073027407 4.775738887237568 0 0 0
2181 727 1 0.415 -0.08995109849734151 13.131919403405272 0.9805451032720172 0 0 0
2289 763 1 0.415 4.440160814142107 13.186559390423957 1.2461471424839423 0 0 0
3261 1087 1 0.415 1.8056700031939823 9.269451363623594 1.7495528550078514 0 0 0
4339 1447 2 -0.83 2.5336216488289285 9.396430143647862 3.3664435264504373 0 0 0
4340 1447 1 0.415 3.3249605493183343 9.911720093428245 3.2099479766719616 0 0 0
4341 1447 1 0.415 1.9289223372879094 10.00722860047771 3.7877460649313863 0 0 0
5419 1807 2 -0.83 0.16389316196968465 12.916225408691753 2.6759832740283116 0 0 0
5527 1843 2 -0.83 4.594964715927738 13.301631012188267 3.0616104437563525 0 0 0
5528 1843 1 0.415 5.189723345075958 13.933091790534519 3.4662723997159266 0 0 0
5420 1807 1 0.415 0.9306895821030835 13.398358929880992 2.9855028344087104 0 0 0
2287 763 2 -0.83 4.1604390069281125 13.15073174093747 0.3314319242493077 0 0 0
3259 1087 2 -0.83 1.7824102348173216 9.368787632064722 0.7978054419708327 0 0 0
2179 727 2 -0.83 -0.39627668026184404 13.21434396116221 44.09229645206761 0 0 -1
2180 727 1 0.415 -0.32407621805286335 12.330180527219165 43.732749575998184 0 0 -1
2288 763 1 0.415 4.105744728042232 12.21578774850961 44.148502467420734 0 0 -1
1298 433 1 0.415 11.28368546625623 7.200106216058021 4.015361772149949 0 0 0
1190 397 1 0.415 6.888996655403253 7.316354463603001 3.518513609763595 0 0 0
235 79 2 -0.83 9.447497236533836 10.48479200672072 3.958857295138158 0 0 0
236 79 1 0.415 9.435282986740926 11.341425918622116 3.531936935890725 0 0 0
237 79 1 0.415 9.228586203766254 10.668765347509204 4.8723470924483525 0 0 0
2397 799 1 0.415 9.050783033308525 13.312225981059552 1.2705918239818372 0 0 0
3369 1123 1 0.415 6.467497066516694 9.285838935771077 1.3166529448328892 0 0 0
3477 1159 1 0.415 11.215511297383038 8.742686510017766 1.5370327177808094 0 0 0
4447 1483 2 -0.83 6.997334908362663 9.095860647499272 2.992895852086003 0 0 0
4448 1483 1 0.415 7.780934034677403 9.490951542250981 3.375135873853364 0 0 0
4449 1483 1 0.415 6.273690294704789 9.624905770374983 3.3285766104783026 0 0 0
4555 1519 2 -0.83 11.327815033313962 8.773434737491991 3.4204829913652754 0 0 0
4557 1519 1 0.415 10.651432593186119 9.398272068793409 3.681858094516798 0 0 0
5635 1879 2 -0.83 8.87129470557639 13.34419061616851 2.959748048435167 0 0 0
5637 1879 1 0.415 8.10293281778448 13.794235023124084 3.3109059636872327 0 0 0
3367 1123 2 -0.83 6.4475741112750855 9.213993534756549 0.36236097967798436 0 0 0
3475 1159 2 -0.83 10.833048574635981 8.875497812521184 0.669671625835039 0 0 0
2395 799 2 -0.83 8.931806703396465 13.277388701187894 0.3214538796483261 0 0 0
2396 799 1 0.415 9.034433763684277 12.351701557682908 44.11539881307102 0 0 -1
4556 1519 1 0.415 12.15303533007436 9.224254303959862 3.599382461541478 0 0 0
3368 1123 1 0.415 6.619666224671454 8.288729763390398 0.18770961700037958 0 0 0
7811 2604 1 0.415 7.968405029723054 10.182391733510958 43.69728785606983 0 0 0
343 115 2 -0.83 13.631012936992184 10.289916840114225 4.1440786511141035 0 0 0
344 115 1 0.415 13.58769160731714 11.10943128972021 3.6513808031321813 0 0 0
345 115 1 0.415 13.339706313292112 10.524013821987174 5.025311250502308 0 0 0
452 151 1 0.415 17.971287671754883 10.960152543087654 3.6671367151293426 0 0 0
1406 469 1 0.415 15.8239614982228 7.312163840491289 3.9421719769105703 0 0 0
2505 835 1 0.415 13.321781605575405 12.88371536117648 1.2888797018578264 0 0 0
2613 871 1 0.415 18.165022510987946 13.15871378259465 1.126715171562409 0 0 0
3585 1195 1 0.415 15.259684665913378 9.23553494248218 1.7154465356206352 0 0 0
4663 1555 2 -0.83 16.10416803577444 8.934052361237544 3.3557500479565983 0 0 0
4664 1555 1 0.415 16.951323246091146 9.332695267975602 3.5548573633884266 0 0 0
4665 1555 1 0.415 15.468975705040794 9.471063760776016 3.8294390809467718 0 0 0
5743 1915 2 -0.83 13.247678925010478 13.04883066166886 3.28934261375912 0 0 0
5744 1915 1 0.415 14.0729538742636 13.390165055694224 3.6337898952372027 0 0 0
5745 1915 1 0.415 12.574968065416588 13.603024402127696 3.6850208134598246 0 0 0
5851 1951 2 -0.83 17.870350398497575 12.570820670096072 2.9663392681490612 0 0 0
5853 1951 1 0.415 17.15981912337336 13.132853453315276 3.2753640366469066 0 0 0
453 151 1 0.415 18.0820196695641 10.468841533125353 5.094808634035236 0 0 0
2611 871 2 -0.83 18.215326677536467 13.160762776555453 44.18569869038521 0 0 -1
3583 1195 2 -0.83 14.917456801878696 9.067886777486345 0.8373770454399195 0 0 0
2503 835 2 -0.83 13.293785541461222 13.012649690607475 0.34081641322625694 0 0 0
2612 871 1 0.415 18.148299465987314 12.238098570769171 43.939873637845594 0 0 -1
2504 835 1 0.415 13.273371584368974 12.126843916391824 43.99351033307986 0 0 -1
3584 1195 1 0.415 15.192584722323097 8.172699383459355 0.6394477602246136 0 0 0
8027 2676 1 0.415 17.30580429940429 9.888320466758715 43.677434782154506 0 0 0
1514 505 1 0.415 20.762066333228972 7.429858596475773 3.9509565899478996 0 0 0
451 151 2 -0.83 18.239567787995263 10.203670552448912 4.1886658298122805 0 0 0
559 187 2 -0.83 22.733045642632224 10.458412098399126 3.9925308650639177 0 0 0
560 187 1 0.415 22.63459919558828 11.29859332436831 3.5446071610212426 0 0 0
561 187 1 0.415 22.519990932737223 10.647251056419735 4.9064123555831936 0 0 0
2721 907 1 0.415 22.678252533749156 13.2399903220905 1.3276082433547867 0 0 0
3693 1231 1 0.415 20.179749111824496 8.75960214089094 1.6072372342434313 0 0 0
4771 1591 2 -0.83 20.443327203927105 8.858140377285922 3.276760525404478 0 0 0
4772 1591 1 0.415 21.2187005695467 9.374869975030293 3.4958917800947145 0 0 0
4773 1591 1 0.415 19.709466633513028 9.371492657225467 3.6146213548809056 0 0 0
4881 1627 1 0.415 24.111002029869027 9.592292349840962 3.5872488045205806 0 0 0
5959 1987 2 -0.83 22.698756305453205 13.142364917749608 3.023495085422311 0 0 0
2719 907 2 -0.83 22.43716459730513 13.3017336335897 0.4033267868624899 0 0 0
5852 1951 1 0.415 18.664111470594428 13.085632529356507 3.1117488983664146 0 0 0
3801 1267 1 0.415 24.750301100685256 8.991357128096418 1.6470055313964977 0 0 0
1622 541 1 0.415 25.090723128481372 7.6377052263990315 3.730444969205161 0 0 0
4879 1627 2 -0.83 24.90937130396588 9.126643561745176 3.3382316388472177 0 0 0
3691 1231 2 -0.83 19.994431546521348 8.876513863007492 0.6754535201801679 0 0 0
3799 1267 2 -0.83 24.46149683482363 9.130772143755271 0.7451256115559227 0 0 0
2720 907 1 0.415 22.41996829322731 12.394473301423815 44.11353012410823 0 0 -1
3800 1267 1 0.415 24.415146610001305 8.251633742025367 0.3693608345757488 0 0 0
1730 577 1 0.415 29.733177674170452 7.466857647979862 3.6042374295701394 0 0 0
4880 1627 1 0.415 25.59647286691211 9.792093066909866 3.3742904570939003 0 0 0
667 223 2 -0.83 27.453186835886903 10.386546268549022 3.762020629658767 0 0 0
668 223 1 0.415 27.57098021005497 11.325785511853448 3.619942423936614 0 0 0
669 223 1 0.415 27.375858206707147 10.295328641189924 4.711721356593139 0 0 0
2829 943 1 0.415 27.202114219587706 13.004067305351109 1.2855678304334148 0 0 0
3909 1303 1 0.415 29.051986120514922 9.163137149887522 1.1413957608779581 0 0 0
4987 1663 2 -0.83 29.551198894379418 9.28424443974509 2.765870622525436 0 0 0
4988 1663 1 0.415 30.310627376025487 9.72647952049522 3.145249529251153 0 0 0
4989 1663 1 0.415 28.797611800271675 9.696965965149047 3.1877702249523705 0 0 0
6067 2023 2 -0.83 27.459995813348986 13.069820748929015 3.021010149974572 0 0 0
6068 2023 1 0.415 28.14246284739224 13.62538746592639 3.3975950816235385 0 0 0
6177 2059 1 0.415 30.733538404368698 13.53309019930436 3.411304418767772 0 0 0
2827 943 2 -0.83 27.07088939731728 12.994012776766901 0.33745876854212176 0 0 0
3907 1303 2 -0.83 28.974311564590263 9.077915221508553 0.19116645858790549 0 0 0
2937 979 1 0.415 31.509458952305355 12.695447896324797 1.2970574000659874 0 0 0
2935 979 2 -0.83 31.4845569379103 12.823892521242351 0.34884133386416805 0 0 0
2936 979 1 0.415 31.395804862868793 11.941216498852016 44.004203114465156 0 0 -1
6175 2059 2 -0.83 31.425467461578478 13.02310938404499 2.990132733917498 0 0 0
777 259 1 0.415 31.618889360804175 10.469681412133275 4.92323298724816 0 0 0
775 259 2 -0.83 31.653524403829067 10.499363986866992 3.9671204375162117 0 0 0
776 259 1 0.415 31.659301256513753 11.432985641007821 3.7560538899527085 0 0 0
883 295 2 -0.83 36.04633078547293 10.30583217255362 4.083338090267196 0 0 0
884 295 1 0.415 36.22343005616864 11.220819659288255 3.8650135894662476 0 0 0
885 295 1 0.415 36.03571226136483 10.285157984819117 5.040255884602384 0 0 0
3045 1015 1 0.415 35.69160728996668 12.867665345419525 1.4095137489277634 0 0 0
4017 1339 1 0.415 33.521363412519584 8.726040600008222 1.0929403978746128 0 0 0
5095 1699 2 -0.83 34.057714950045415 8.859615851200093 2.8284832801712585 0 0 0
5096 1699 1 0.415 34.773328596580136 9.320767792430484 3.2660536588610976 0 0 0
5097 1699 1 0.415 33.27202296709672 9.348542912118162 3.073167315587152 0 0 0
6176 2059 1 0.415 32.15519981829472 13.636153429151182 2.9012534540102908 0 0 0
6283 2095 2 -0.83 36.274419874522685 12.923993848629042 3.0893618276703303 0 0 0
6284 2095 1 0.415 37.025583478417786 13.511636688345378 3.1709766329782667 0 0 0
6285 2095 1 0.415 35.53532515012704 13.431219233549843 3.425059976727856 0 0 0
5205 1735 1 0.415 37.33743396445372 9.446594667250709 3.351513436035812 0 0 0
3043 1015 2 -0.83 35.59899161293801 13.048264705106252 0.4740790649723032 0 0 0
4015 1339 2 -0.83 33.3979658624703 8.876114654344091 44.17052491811322 0 0 -1
3044 1015 1 0.415 35.473141239071104 12.187477698496428 44.089639194031335 0 0 -1
1946 649 1 0.415 38.239558930452034 7.330710236563224 4.113568245233381 0 0 0
5421 1807 1 0.415 -0.582855575474157 13.430974937988797 2.9819752438008695 0 0 0
4125 1375 1 0.415 37.844292849254565 8.933491383013187 0.9734938127502369 0 0 0
5203 1735 2 -0.83 38.099932758783886 8.904776195036096 3.1483874356803225 0 0 0
991 331 2 -0.83 40.21014953623132 10.613001539818248 3.787999312166342 0 0 0
992 331 1 0.415 40.354801019226066 11.53004836887245 3.554905121134751 0 0 0
993 331 1 0.415 40.49527413230395 10.54922121882473 4.699518854312302 0 0 0
2054 685 1 0.415 42.95507424467493 7.548673321445302 4.050852659587093 0 0 0
3153 1051 1 0.415 40.36232443856441 13.27973296923897 1.082453499193142 0 0 0
4233 1411 1 0.415 42.13737229470918 9.544033597524487 1.4957750367714773 0 0 0
5204 1735 1 0.415 38.846518913971735 9.41198769091176 3.467099612270761 0 0 0
5311 1771 2 -0.83 42.604549915668215 9.155451301447608 3.4616954551815446 0 0 0
5312 1771 1 0.415 43.32248730682334 9.78846590146627 3.4711966594645847 0 0 0
5313 1771 1 0.415 41.81325683731085 9.688893698251816 3.53603466291595 0 0 0
6391 2131 2 -0.83 40.430031037731474 13.221446566193734 2.858456939676432 0 0 0
6392 2131 1 0.415 41.25169932332792 13.545849180900754 3.227043445392545 0 0 0
6393 2131 1 0.415 39.749993061173576 13.715578338435781 3.316293136176913 0 0 0
4123 1375 2 -0.83 38.24469171372176 9.20051755295885 44.16094099899265 0 0 -1
3151 1051 2 -0.83 40.34684406493888 13.270684496866636 44.14028004025146 0 0 -1
4231 1411 2 -0.83 42.28626231695865 9.614475450704637 0.5528532230621371 0 0 0
4232 1411 1 0.415 42.588725823536066 8.744586724037749 0.2920060056333171 0 0 0
3152 1051 1 0.415 40.45106626265142 12.34814239099816 43.90728725798848 0 0 -1
5529 1843 1 0.415 3.7204145622424702 13.60721803713197 3.3024640073511025 0 0 0
37 13 2 -0.83 -0.32304534296899584 17.797830801129088 4.108587082438952 0 0 0
38 13 1 0.415 -0.23477026749548224 18.70623524119036 3.8200723942397126 0 0 0
39 13 1 0.415 -0.2754916184683864 17.84362001815972 5.063507933546215 0 0 0
145 49 2 -0.83 3.9103139594646805 18.49758990022198 3.706627288128437 0 0 0
146 49 1 0.415 4.379088923103549 19.288067894858443 3.438996172085987 0 0 0
147 49 1 0.415 3.968531035796267 18.49593951929774 4.662053836221479 0 0 0
1099 367 2 -0.83 2.2210411789135143 14.234715533973237 3.7785921579836 0 0 0
1100 367 1 0.415 2.1402605827240366 15.144207068653246 3.4913092241588775 0 0 0
1101 367 1 0.415 2.2693541215502284 14.287929778643983 4.733089902370088 0 0 0
3277 1093 2 -0.83 2.2867696318337307 17.016594041335125 44.1442626302181 0 0 -1
3279 1093 1 0.415 2.1544099571582014 16.963937327148912 1.0759451363385377 0 0 0
4357 1453 2 -0.83 1.9489399824197944 16.736599230849038 2.8693185482250794 0 0 0
4358 1453 1 0.415 2.6459201965361787 17.35782986592742 3.080323097003955 0 0 0
4359 1453 1 0.415 1.1712736452684789 17.093616477544874 3.2982772804447915 0 0 0
5636 1879 1 0.415 9.608981515656286 13.715812263076867 3.4434291022595374 0 0 0
4467 1489 1 0.415 5.414151805945938 17.421538169522737 3.195727662124445 0 0 0
253 85 2 -0.83 8.38796391566281 18.252032633021454 3.8882048563171074 0 0 0
254 85 1 0.415 8.68756166523895 19.145252976128138 3.7189995154336324 0 0 0
255 85 1 0.415 8.407865495028588 18.16877905073466 4.841569743624585 0 0 0
1207 403 2 -0.83 6.788992943373216 14.533820052190313 4.1008125058082365 0 0 0
1208 403 1 0.415 6.6891003539100256 15.475235562080616 3.9594259669200715 0 0 0
1209 403 1 0.415 6.832414674012344 14.437292018600125 5.05214249374146 0 0 0
1315 439 2 -0.83 11.23935879223671 14.590638159794414 4.186991564087999 0 0 0
1316 439 1 0.415 10.76448165819182 15.32520173669798 3.7982244022092613 0 0 0
1317 439 1 0.415 11.160328872933887 14.726541027119184 5.131193096472905 0 0 0
3385 1129 2 -0.83 6.3367174931644925 17.06146856185614 0.22309180659105654 0 0 0
3387 1129 1 0.415 6.2300024295773895 16.92386351499701 1.1643189771311915 0 0 0
3495 1165 1 0.415 11.202209308526685 16.91765953234667 1.2528032088506984 0 0 0
4465 1489 2 -0.83 6.1004532412212455 16.815321074575387 2.9169391708288304 0 0 0
4466 1489 1 0.415 6.9180014445362 17.28108776709744 3.092746378878016 0 0 0
4575 1525 1 0.415 9.891225922372838 17.46084355116034 3.1141773750640223 0 0 0
4573 1525 2 -0.83 10.682077679284932 16.955965204635795 2.92474875890732 0 0 0
4574 1525 1 0.415 11.384260707980214 17.436285752822414 3.3634548275920113 0 0 0
3493 1165 2 -0.83 11.49595859629027 17.110977867557462 0.36253851917785984 0 0 0
3386 1129 1 0.415 6.5461285876142625 16.194342157962847 43.89086158903976 0 0 -1
2414 805 1 0.415 9.278558274397174 19.97224072687499 43.82218737419737 0 0 -1
3494 1165 1 0.415 11.368669384274579 16.29148791338105 43.899416438558234 0 0 -1
6731 2244 1 0.415 10.179397411586923 14.104873899399326 43.68358773790933 0 0 0
361 121 2 -0.83 13.143387683251698 18.100476329309497 3.917954410383206 0 0 0
362 121 1 0.415 13.39683482685168 18.928383690507406 3.509829690616355 0 0 0
363 121 1 0.415 13.244887024957524 18.25492102448248 4.857143720363678 0 0 0
470 157 1 0.415 17.919574120258535 18.87430490155223 4.074441817046564 0 0 0
1423 475 2 -0.83 15.682374321706334 14.201083772195757 4.251958091458718 0 0 0
1424 475 1 0.415 15.713134150864148 15.098876221219342 3.9214215706350064 0 0 0
1425 475 1 0.415 15.45865136097315 14.293823647097573 5.178013809370685 0 0 0
3603 1201 1 0.415 16.10856421336268 16.78147747530935 1.5608991959446898 0 0 0
4681 1561 2 -0.83 15.61288773230427 16.684606824554727 3.3264278728102323 0 0 0
4682 1561 1 0.415 16.24326422097758 17.19903263776913 3.830633600948922 0 0 0
4683 1561 1 0.415 14.771501912680975 17.111902325600976 3.486803381624971 0 0 0
469 157 2 -0.83 17.779093763680674 17.96231300659681 4.328937187267688 0 0 0
471 157 1 0.415 17.68583957606795 17.99051773908644 5.281166146059787 0 0 0
3601 1201 2 -0.83 16.144003710254225 17.039144250870965 0.639713158783507 0 0 0
3602 1201 1 0.415 16.01613992878969 16.222519868972906 44.17186342886896 0 0 -1
5961 1987 1 0.415 21.90418807331112 13.300278027305927 3.533354496715673 0 0 0
5960 1987 1 0.415 23.38282616561753 13.622267294514081 3.490371921116953 0 0 0
577 193 2 -0.83 22.910596240157187 18.049177333536775 4.143357909336747 0 0 0
578 193 1 0.415 22.742581514833773 18.93948314398956 3.8345562643008266 0 0 0
579 193 1 0.415 22.645422488125842 18.06010298173225 5.063029237459868 0 0 0
1531 511 2 -0.83 20.15494081854665 14.034182956954623 3.91796174302278 0 0 0
1532 511 1 0.415 20.10157922571891 14.957644519498825 3.671784706813601 0 0 0
1533 511 1 0.415 20.28800209811237 14.045791348575726 4.865797061308484 0 0 0
3709 1237 2 -0.83 20.3037187195121 16.99044922715739 0.4786905334223066 0 0 0
3711 1237 1 0.415 19.99486618264895 16.800579932045522 1.3645751768308927 0 0 0
4789 1597 2 -0.83 19.885819882829015 16.749657349082266 3.1274110699672413 0 0 0
4790 1597 1 0.415 20.69047696185839 17.191728764571202 3.3982093136959373 0 0 0
4791 1597 1 0.415 19.186380858586922 17.235325234726453 3.5646107914447134 0 0 0
4899 1633 1 0.415 24.474854705649285 17.158484695629447 3.461040288656405 0 0 0
3819 1273 1 0.415 24.995065374821767 16.789437321895036 1.058764185579603 0 0 0
2738 913 1 0.415 22.406830579381335 19.934922631208668 43.90345653754381 0 0 -1
4897 1633 2 -0.83 25.169771114827864 16.678564173391603 3.0104858336729343 0 0 0
7055 2352 1 0.415 24.15849147294801 13.802527738631017 43.9154551287877 0 0 0