ITEM: TIMESTEP
0
ITEM: NUMBER OF ATOMS
4500
ITEM: BOX BOUNDS
0.000000 35.586016
0.000000 35.586016
0.000000 35.526724
ITEM: ATOMS id type x y z vx vy vz mass
3794 2 2.988980 4.061760 2.402800 0.0015715 0.000648663 -0.00476559 15.9994
3793 1 3.109280 3.366550 3.049660 0.0127213 -0.00509852 -0.0130313 1.008
3795 2 3.769760 3.710170 3.651260 -0.00265831 0.00387461 -0.00127294 15.9994
2522 2 1.524280 0.614832 6.642680 0.0036348 -0.000289766 -0.00342575 15.9994
1615 1 0.910168 5.340650 5.089370 0.00823262 0.00930349 -0.0055787 1.008
1616 2 0.744803 5.111510 4.174830 -0.000506147 0.00126184 -0.00192562 15.9994
3245 2 6.535670 3.629860 3.234470 -0.000370435 -0.00957376 0.00127878 15.9994
3246 2 6.072030 4.022930 4.620990 -0.000749641 -0.00315818 -0.000721858 15.9994
3244 1 6.143940 3.272360 4.031320 0.0154206 -0.00929439 0.00912137 1.008
1268 2 4.811960 7.542490 2.972940 -0.00599309 0.00363547 0.000646083 15.9994
1267 1 5.065460 7.488100 2.051520 -0.00132041 -0.00487276 0.00249115 1.008
1269 2 5.779020 8.119700 1.961250 -0.0025078 -0.00398576 -0.000295498 15.9994
4228 1 2.943000 7.674280 0.583055 0.00389427 -0.0034841 -0.00922658 1.008
4229 2 3.667180 7.829240 1.189500 -0.00479105 0.0016779 -0.000156656 15.9994
4230 2 2.668470 6.774900 0.761894 -0.00488669 0.0012671 0.00125854 15.9994
2693 2 7.299790 2.033900 4.642900 -0.00269468 -0.000469093 -0.00257759 15.9994
4238 2 1.908800 8.293610 1.972280 0.00375873 2.12941e-05 -0.00536672 15.9994
2353 1 3.066920 5.588800 6.962630 0.00138675 -0.00121398 -0.00482999 1.008
2355 2 2.522300 5.599720 6.175550 0.00184411 0.00742442 -0.00499409 15.9994
3966 2 7.098080 5.258490 1.386580 0.000408221 -0.00124871 -0.00457314 15.9994
3964 1 7.406620 4.473560 1.839270 0.000619746 -0.00463645 -0.0106384 1.008
2980 1 5.169200 5.711630 5.225880 0.00276418 -0.0073899 0.00332207 1.008
2981 2 4.866640 5.573870 6.123500 -0.0049537 0.00400892 0.00240555 15.9994
2982 2 5.804060 6.424810 5.293410 -0.00222221 -0.00258857 -0.00118145 15.9994
2224 1 6.454590 7.921940 6.545530 -0.00266856 -0.00627132 0.00089969 1.008
4010 2 3.289090 7.557330 6.990900 0.000726885 0.00177273 0.00312409 15.9994
3279 2 1.739290 0.647523 3.145780 -0.0036433 -0.0027095 0.00885783 15.9994
4110 2 4.955450 2.273500 7.360420 0.000495413 -0.00113922 0.000540652 15.9994
389 2 3.161660 3.860210 7.510020 0.00403496 -0.00205994 -0.00202903 15.9994
388 1 3.388960 2.936500 7.616500 0.00555233 -0.00174798 -0.00284174 1.008
390 2 3.252500 2.761570 8.547630 -0.00292473 -0.00513471 -0.00474968 15.9994
564 2 1.584580 2.496320 3.181700 -0.00194979 -0.000199854 -0.00018815 15.9994
562 1 0.709744 2.114590 3.253550 -0.00121944 -0.00104743 0.00374865 1.008
3046 1 7.533400 7.137820 3.972660 -0.0107036 0.0147757 -0.000734136 1.008
3048 2 7.030880 6.898440 3.193940 0.00117689 0.00487581 -0.00533277 15.9994
4108 1 5.785840 1.797790 7.340790 -0.00135395 -0.00441304 0.00314227 1.008
4109 2 5.541220 0.882307 7.475980 -0.00505957 -0.00297531 0.00594407 15.9994
269 2 1.538760 4.926920 1.365600 0.00256612 0.00156358 0.00488175 15.9994
563 2 0.379758 2.427580 4.095800 0.00117055 0.000901315 0.00392434 15.9994
3965 2 8.361010 4.543570 1.817620 0.000471852 -0.00106899 -0.00463868 15.9994
2692 1 7.981030 1.445650 4.968640 -0.00193114 0.00394781 0.00372479 1.008
407 2 8.718770 3.381110 7.019510 0.00841989 0.00108133 -0.000759961 15.9994
4011 2 4.189700 8.553320 7.690050 -0.00140338 0.00502863 0.00112045 15.9994
4009 1 3.385760 8.491840 7.174170 0.00351484 0.00328725 -0.00626735 1.008
2225 2 6.846340 7.626130 7.367270 -0.00167961 -0.00421019 0.00113265 15.9994
2354 2 2.441890 5.610460 7.687270 0.00144645 0.00707586 -0.00506329 15.9994
1613 2 6.683040 2.847940 8.309180 -0.00052546 -0.000204294 -3.50154e-05 15.9994
2501 2 7.387940 8.249840 0.853422 0.00112979 0.00216208 0.0023803 15.9994
2226 2 7.128880 7.759160 5.885930 8.27585e-05 0.000934242 0.00198251 15.9994
3047 2 8.240130 7.691860 3.641280 0.00219814 -0.000507514 0.00128465 15.9994
268 1 2.426580 5.037390 1.025320 -0.000400744 0.00288104 -0.00232577 1.008
2694 2 7.840380 0.627949 4.491330 0.0054925 0.00190459 0.00508949 15.9994
855 2 5.472740 1.476870 4.341100 -0.00385841 0.00335704 -0.00935595 15.9994
408 2 7.985380 4.679590 6.758770 0.00236222 -0.00236619 -0.000600345 15.9994
406 1 8.451000 3.970890 6.314740 0.00469215 -0.000687986 -0.000774616 1.008
1163 2 8.661300 0.509441 6.621780 -0.00626318 -0.00303046 0.00687792 15.9994
1590 2 0.270912 3.606370 5.724020 0.00262545 0.00156041 0.00337412 15.9994
2018 2 7.669730 5.137480 8.573840 0.00330755 -0.00128271 -0.00321019 15.9994
2017 1 8.083290 5.847900 8.083430 0.00224197 0.00682004 0.00776632 1.008
2521 1 2.461700 0.427428 6.594140 0.00469916 0.00330898 0.00381834 1.008
2418 2 0.076770 5.906380 8.615610 0.00507342 0.00092029 0.000507355 15.9994
854 2 5.399130 0.154632 3.607490 -0.0048633 -0.00138905 -0.000597998 15.9994
1617 2 0.375717 6.119960 5.241930 -0.000314996 0.00298088 -0.00355557 15.9994
270 2 2.444000 4.512260 0.225211 -0.00605662 0.00275326 -0.00232878 15.9994
853 1 5.045910 0.620445 4.365440 0.00907472 -0.00260113 0.00660257 1.008
2523 2 2.883710 1.272630 6.748350 0.000239001 0.0050774 0.00613066 15.9994
1762 1 -0.003809 5.137120 2.433970 -0.00325215 -0.00517003 -0.0257966 1.008
1794 2 17.401000 1.868820 4.780870 -0.000443709 0.000356115 -0.0107042 15.9994
4265 2 9.082430 5.814380 3.998540 0.00354086 -0.00343779 -0.00059426 15.9994
4264 1 9.578890 5.033770 4.244340 -0.00830488 -0.0117838 -0.00318233 1.008
4266 2 9.137300 4.705240 5.027480 -0.00653747 -0.00125907 0.00221973 15.9994
584 2 15.628900 2.079090 8.085670 -0.00120961 -0.00289078 -0.00231782 15.9994
912 2 11.354200 2.256660 2.487050 0.00131578 0.00659065 -0.00803893 15.9994
583 1 14.932100 1.480180 8.354140 -0.00348514 -0.00634885 -0.0160756 1.008
911 2 11.935600 1.113480 1.682640 0.00175487 -4.57653e-05 0.00180512 15.9994
1793 2 16.519300 3.086150 4.961400 -0.00422566 -0.00412684 0.000636231 15.9994
910 1 11.823900 2.064120 1.675530 0.0231502 0.00243264 0.00567416 1.008
3290 2 15.169300 4.885940 6.354930 0.00039221 0.00610018 -0.0058207 15.9994
3289 1 14.243300 4.956410 6.586790 -0.00261168 -0.0133081 -0.0119848 1.008
3291 2 13.842900 5.405110 5.842090 -0.00262674 0.000251689 -0.00378219 15.9994
4066 1 12.587500 5.816920 4.624320 0.00122417 0.000451601 -0.00571962 1.008
465 2 15.549700 4.076000 3.150090 -0.00148343 -0.00153844 0.00295982 15.9994
463 1 16.338500 4.434860 3.556650 0.00530304 -0.00450623 -0.00766749 1.008
464 2 16.467700 5.279610 3.125430 -0.00448316 0.000615213 -0.000490591 15.9994
4068 2 12.853100 6.249150 3.812640 -0.00230292 0.0011848 -0.0064473 15.9994
4067 2 11.637800 5.724810 4.547470 0.000907146 0.000621925 -0.00164282 15.9994
1066 1 17.031000 5.306140 6.399040 -0.00655446 0.00364703 -0.00201588 1.008
991 1 13.773100 7.278770 2.589830 -0.00164799 0.00377891 0.00841158 1.008
992 2 14.691900 7.193520 2.335280 -0.00372607 0.000193063 0.00220777 15.9994
439 1 11.204900 7.265840 0.846339 -0.00250848 -0.00339457 0.00170607 1.008
441 2 12.069600 6.934050 1.087980 -0.00248855 -0.00358647 0.0012455 15.9994
440 2 10.989100 7.896230 1.533550 -0.000989859 -0.00166129 0.000552099 15.9994
585 2 14.131900 2.002520 8.298330 -0.000874077 -0.000648268 0.000492775 15.9994
3035 2 10.320100 3.304660 3.927310 -0.00169769 -0.00189344 -0.00134091 15.9994
3036 2 9.563270 2.032780 4.245700 0.000706521 -0.00194532 0.00392722 15.9994
2276 2 10.085000 5.701240 0.708624 -0.00250054 0.00804882 -0.0101321 15.9994
1685 2 12.168600 7.041850 5.807360 -0.00175937 -0.00747209 -0.000829805 15.9994
3034 1 10.393500 2.350970 3.891170 0.00523111 -0.00191561 0.014671 1.008
2769 2 13.529300 2.290070 0.988875 0.00527208 0.00238203 -0.00522221 15.9994
718 1 9.810240 8.554380 2.735130 0.00525952 0.0183429 -0.0129538 1.008
492 2 15.558600 0.850209 0.936707 0.004025 0.00209166 0.00186269 15.9994
1741 1 12.207200 0.921467 5.394090 0.0253468 0.022642 -0.00171096 1.008
1743 2 11.687400 1.451940 4.790210 -0.00402818 -0.00365467 0.000583766 15.9994
490 1 16.075900 0.124731 0.587023 -0.00154367 0.000637948 -0.00332925 1.008
2411 2 15.763000 0.753450 5.411420 0.000152664 -0.00803961 -0.00220954 15.9994
491 2 16.757000 0.546347 0.063030 0.000273018 -0.000899151 -0.00215601 15.9994
170 2 13.186100 3.620890 7.079990 -0.00613997 -0.00730239 0.00760354 15.9994
171 2 12.436300 2.345570 6.758640 -0.0084009 -0.00237934 -0.00642119 15.9994
169 1 12.678900 2.918130 7.486340 0.0125985 -0.0233941 0.00307727 1.008
1742 2 12.701300 0.328309 4.828170 -0.00259485 -0.00230778 0.000156677 15.9994
59 2 17.338800 7.009520 2.863550 0.00243496 -0.00122326 -0.0020667 15.9994
58 1 16.517200 7.146550 2.391900 0.00058671 0.000569796 0.00172448 1.008
1684 1 11.880500 7.776310 6.349350 0.0118715 -0.00298238 0.000279913 1.008
1686 2 11.538800 7.368000 7.144800 -0.00209424 0.00179771 -0.00330468 15.9994
580 1 17.193300 2.918030 7.695060 -0.0264332 0.000201474 0.00465453 1.008
60 2 16.786500 7.429120 1.517900 -0.00279436 -0.000910058 0.000234839 15.9994
4007 2 10.147500 8.275600 5.979150 0.00269959 0.00355921 0.00398793 15.9994
1162 1 9.242220 0.132976 7.282870 -4.25016e-05 -0.0217588 -0.00928514 1.008
1164 2 10.118100 0.419349 7.023800 -0.00421941 -0.000852898 -0.000231644 15.9994
2275 1 9.749710 4.990130 0.162609 -0.000684969 0.00467936 -0.00679134 1.008
3768 2 14.446500 4.398760 0.631472 0.00597893 0.00179112 -0.00169267 15.9994
3767 2 15.777400 4.819920 0.045652 0.00930175 -0.00230577 0.00304197 15.9994
2767 1 14.482300 2.322540 0.906152 0.00534359 0.00161529 -0.00433804 1.008
3766 1 14.858900 5.082890 0.104099 0.0100305 0.000757352 0.00019436 1.008
719 2 8.972580 8.813170 2.350960 -0.00594688 0.00426466 0.00196322 15.9994
3284 2 9.053120 8.804500 7.837220 -0.00332818 -0.00500259 -0.00086935 15.9994
993 2 13.653900 8.215190 2.748350 0.00184106 0.00486143 0.00446572 15.9994
4006 1 9.335310 8.781990 5.970180 0.000238863 -0.000537085 -0.00187744 1.008
4216 1 17.093300 8.581120 5.902620 -0.00633718 0.00174002 -0.0278622 1.008
2019 2 8.999220 5.829590 8.360890 0.00314694 0.00120761 0.0042366 15.9994
394 1 10.834200 6.789640 8.533910 -0.0108248 0.0080337 0.0168474 1.008
396 2 11.019100 5.909910 8.862690 0.000550519 0.00238453 -0.00484656 15.9994
3333 2 11.793700 3.839650 8.832700 0.000343053 -0.00485087 -0.00205357 15.9994
581 2 17.111200 3.853980 7.512050 -0.00121121 0.00151137 0.000408959 15.9994
4196 2 14.769800 6.487690 7.927720 0.00510992 0.00366072 0.00523296 15.9994
4195 1 14.539100 7.399890 8.103520 -0.00785668 0.000111459 0.00649667 1.008
4197 2 14.084000 7.689050 7.312620 0.00385056 8.7003e-05 -0.000218912 15.9994
3827 2 9.147500 1.020240 8.864680 -0.00376499 -0.000558686 -7.40018e-05 15.9994
1792 1 16.638500 2.186130 5.264690 -0.00205943 -0.00689717 -0.00856046 1.008
1068 2 17.140100 6.222380 6.653730 0.00376468 0.00140718 0.00145422 15.9994
582 2 17.151300 2.500670 6.834660 -0.00546547 -0.000337461 0.00396418 15.9994
1067 2 17.747500 5.140510 5.786260 -0.00123333 -0.00560159 0.0067838 15.9994
2854 1 16.229600 8.764910 0.068201 -0.00289549 2.91459e-06 0.00220497 1.008
3238 1 17.537600 4.232190 0.100320 0.0121572 0.00538266 0.0156963 1.008
4237 1 1.474120 8.946580 2.520830 0.00184924 0.00126743 -0.00841577 1.008
4239 2 2.101440 9.128060 3.220660 -2.63422e-05 0.00396224 -0.00747776 15.9994
480 2 3.126300 9.199800 5.549090 -0.00416577 -0.00114751 -0.00198088 15.9994
3654 2 6.191030 9.651020 6.353510 -0.00199122 -0.0018781 0.00347514 15.9994
1828 1 5.195110 10.176000 3.514160 0.00220331 0.0199717 -0.00252183 1.008
1830 2 6.079390 10.154200 3.879950 0.000693738 0.00580187 0.000174567 15.9994
478 1 2.825980 9.531420 4.702890 -0.00909136 -0.00654957 -0.00231906 1.008
479 2 2.289160 10.293400 4.920570 -0.00236075 -0.00124075 -0.00442557 15.9994
276 2 1.999600 11.227000 7.755220 -0.00412109 0.000387667 -0.00218961 15.9994
1829 2 4.619730 10.202000 4.278670 -0.000619929 -0.00124122 -0.00398394 15.9994
1649 2 2.664230 16.815800 2.040680 0.00295864 -0.0040161 0.00031518 15.9994
2819 2 3.859350 12.728800 6.821940 0.000597555 0.00123021 8.80883e-05 15.9994
2820 2 4.478150 11.354200 6.961520 -0.00285863 -0.000462144 -0.00180227 15.9994
3241 1 5.661990 13.343000 2.891620 0.00708903 0.00989582 -0.00357594 1.008
3242 2 6.326600 13.348000 3.580460 0.00051762 0.00471143 0.00274746 15.9994
3243 2 5.980530 12.702600 2.255490 0.00187913 -0.00173561 0.00558996 15.9994
2929 1 2.803210 13.581000 3.762350 0.017512 0.0171937 -0.0205633 1.008
2964 2 2.025140 12.468300 4.771380 -0.00441841 -0.00176833 0.00114141 15.9994
2930 2 3.599680 13.050400 3.778610 0.00523592 -0.000632023 -0.00197368 15.9994
4413 2 2.465530 14.544100 2.313560 0.000828996 0.000535526 -9.31311e-05 15.9994
1745 2 5.547690 14.640100 1.739900 -0.000126507 0.000660659 -0.0011918 15.9994
2962 1 1.612920 11.884000 5.407710 0.00610901 0.000427562 0.00995555 1.008
4411 1 2.648140 15.167700 1.610670 0.000833278 0.00351289 0.00257933 1.008
1744 1 5.450460 15.377600 1.137450 -0.0114286 0.0098357 0.0118964 1.008
4412 2 3.574270 15.036100 1.407720 -4.81814e-05 0.00194566 -0.000316597 15.9994
4052 2 2.363960 15.240200 6.568900 -0.00308981 -0.00515544 0.00257233 15.9994
2188 1 5.965040 11.247500 1.057640 -2.45799e-05 0.0087718 -0.0025523 1.008
2190 2 5.643890 10.769900 1.822450 0.0105078 -0.00148794 -0.00455891 15.9994
2963 2 1.229460 12.471000 6.059310 0.00213477 0.00315961 0.00512039 15.9994
1746 2 6.030800 16.052800 1.488970 0.00877828 -0.00200616 0.00124341 15.9994
2818 1 3.843880 11.943800 7.369390 -0.00726351 -0.00258456 -0.0056565 1.008
2189 2 5.228360 11.245100 0.446463 -0.00182195 -0.000138791 -0.000313858 15.9994
3928 1 1.270370 11.311700 0.969529 -0.00114028 0.00388523 -0.0017633 1.008
2931 2 2.950310 14.255000 4.425910 0.00555863 -0.00292054 0.00248979 15.9994
4053 2 3.865670 15.380300 6.438010 -0.00395573 0.0041379 0.00316975 15.9994
4051 1 3.122180 14.870100 6.116830 0.00272593 -0.0178925 0.0228677 1.008
3929 2 1.155500 12.054100 1.562640 -0.0027707 0.00438294 -0.00274865 15.9994
3930 2 1.119610 10.541300 1.517330 -0.00714184 0.00453068 -0.0025439 15.9994
2749 1 0.061893 13.529500 7.093300 0.00177272 0.000868579 -0.00523294 1.008
1666 1 7.865200 13.407900 4.714390 -0.00787036 0.0035476 -0.000184263 1.008
1668 2 7.863130 13.639400 5.643170 0.00407977 -0.000582189 0.000836552 15.9994
274 1 1.350160 10.853500 8.351050 -0.0026482 -0.00432914 -0.00359015 1.008
3835 1 8.000930 13.356100 7.993680 -0.000554965 -0.00147967 0.00271594 1.008
1858 1 7.754650 17.339100 1.847920 -0.00432416 0.000406496 -0.00231871 1.008
2502 2 7.095960 9.729910 0.980056 -0.0032274 0.000890302 0.00658788 15.9994
3652 1 5.892760 10.560600 6.356820 -0.00555676 -0.00314639 0.0276088 1.008
2500 1 7.376480 8.967670 1.486530 0.0139402 0.00354101 0.000995887 1.008
3653 2 6.671830 11.067800 6.584880 0.00261011 -0.00272102 -0.00125785 15.9994
1648 1 2.739660 17.757800 2.192870 0.000832245 -0.00170128 -0.0130682 1.008
1667 2 8.134930 14.210300 4.267640 0.00671664 -0.000486243 0.00145307 15.9994
3463 1 1.620800 17.017100 7.360230 0.00123405 -0.00832858 0.00179912 1.008
1106 2 5.020310 16.753200 7.529260 0.000308785 0.00529822 0.000563481 15.9994
1107 2 4.446470 17.036100 6.157190 0.00121657 -0.000309544 -0.000916789 15.9994
3464 2 0.672520 17.147300 7.353560 0.00286433 0.00313653 0.00105394 15.9994
3465 2 1.859750 16.945700 6.436090 0.00205509 -0.00442998 0.00175076 15.9994
1105 1 5.136280 16.544000 6.602420 0.011668 0.0150814 -0.000184488 1.008
1676 2 1.428620 15.641200 -0.002017 0.00828914 0.00124141 -0.00265066 15.9994
3837 2 8.439850 12.618300 8.417040 0.00520159 -0.000663806 -0.00191051 15.9994
3836 2 8.602900 14.091400 8.108450 -0.00683226 0.00275346 0.00829164 15.9994
3885 2 8.403900 16.310100 3.261680 0.000819125 0.00350895 -0.000150892 15.9994
275 2 1.701990 9.993590 8.581100 0.0029328 -0.00189401 -0.00314729 15.9994
3283 1 8.506130 9.000100 8.597990 -0.00838633 -0.00653222 -0.00414678 1.008
831 2 6.695800 17.750700 5.920330 -0.00224438 0.00314277 0.00145928 15.9994
1410 2 2.614560 11.472700 0.065539 -0.000302613 0.00508033 0.00192811 15.9994
138 2 2.771410 17.565800 4.200510 0.00201925 -0.00453164 0.0022932 15.9994
68 2 13.668300 10.005100 0.789118 -0.000326005 0.00236896 -0.000356326 15.9994
4218 2 16.267600 8.990640 6.161110 0.00297513 0.00274995 4.90104e-05 15.9994
4289 2 17.175200 10.054300 1.470680 -0.00360206 0.000862406 -0.00110841 15.9994
2754 2 13.516300 17.136000 4.596390 0.00779801 0.00095117 -0.00187413 15.9994
2998 1 17.490500 15.181700 3.542670 0.0022314 0.00675504 0.0165917 1.008
1401 2 16.778600 11.556400 3.251410 0.00164566 -0.00203848 0.0033248 15.9994
720 2 9.947600 9.174450 3.451280 -0.00420731 0.00557977 -7.92028e-05 15.9994
4085 2 16.556400 13.033800 6.675860 -0.00106328 -0.00238129 0.000762155 15.9994
4008 2 9.597580 9.650930 5.666220 -0.00227464 0.000167223 -0.00193048 15.9994
2256 2 14.066400 10.480600 3.029200 -0.00110128 -0.000729772 0.00667325 15.9994
2254 1 13.354000 10.165900 2.472670 -0.00351818 -0.0066688 0.0132103 1.008
3031 1 13.764300 17.356100 0.967618 -0.011317 -0.00767188 -0.00898698 1.008
4116 2 11.124200 10.970100 7.552560 0.000462125 -0.00224983 0.000453159 15.9994
37 1 14.696600 10.693100 6.867360 -0.00489311 0.00355968 0.00386236 1.008
38 2 13.759300 10.657000 6.676730 -0.00429411 0.0012118 0.00149137 15.9994
3883 1 8.974990 15.802900 3.838560 -0.00227317 -0.00122965 -0.00132127 1.008
4115 2 11.756500 9.861250 6.738610 0.00269113 -0.00123577 0.000897053 15.9994
264 2 9.015190 11.776700 4.738120 -0.000954287 0.00456387 -0.00438662 15.9994
262 1 9.656240 11.070500 4.656440 -0.00764317 -0.000592573 -0.0119077 1.008
263 2 10.375300 11.456000 4.155860 0.00116877 0.00146888 0.00240894 15.9994
2454 2 12.133000 12.904700 3.778560 -0.00270905 -0.00370107 0.0021959 15.9994
2453 2 11.183300 12.927300 2.599820 -0.00457168 -0.00340735 0.00376702 15.9994
2452 1 11.721200 12.336800 3.127300 0.000401662 -0.00272971 -0.000582162 1.008
954 2 11.767400 16.592100 5.050740 -0.00125698 0.00304849 0.00186911 15.9994
952 1 11.173600 15.979000 5.484070 0.00083385 0.00991304 0.0143859 1.008
953 2 10.338300 16.093000 5.030680 0.00255505 -0.0079096 0.0067985 15.9994
2592 2 13.511800 14.177200 4.701270 0.00395457 -0.00462947 0.00245012 15.9994
827 2 15.012800 14.275700 2.143380 -0.000597367 0.00268327 0.000857991 15.9994
826 1 15.153200 13.935300 3.026930 -0.00875309 -0.00116318 0.00063555 1.008
828 2 15.641600 13.122500 2.896210 -0.00287887 0.00219846 0.00191919 15.9994
3000 2 17.206800 16.092200 3.460680 -0.00339147 0.0040272 0.00613053 15.9994
2162 2 10.664500 13.948800 0.937005 -0.00246151 -0.00262737 -0.00167207 15.9994
2590 1 12.775500 13.720300 5.107810 0.007839 -0.00298301 0.0112448 1.008
2161 1 10.733200 14.627900 1.608060 0.0144323 -0.00626696 0.000211621 1.008
2591 2 12.164400 14.416700 5.348580 0.00105223 -0.00371115 -0.00404963 15.9994
3884 2 9.625240 15.415600 3.252520 -0.00138855 0.000594089 -0.0014889 15.9994
2163 2 10.994900 15.413800 1.128280 6.20482e-06 -0.00313608 -0.00243774 15.9994
4114 1 11.964900 10.669200 7.207710 0.00108473 -0.000801766 0.000796905 1.008
2255 2 12.630700 10.768700 2.644780 0.000505445 0.0011799 0.00230258 15.9994
4168 1 9.731810 15.504100 7.810960 8.61234e-05 -0.00528158 0.00263866 1.008
2999 2 16.679200 14.686800 3.656490 0.00357387 0.000311003 -0.00217216 15.9994
1400 2 15.930300 11.990800 4.427630 0.000256242 0.00300646 0.000394184 15.9994
3055 1 14.692000 15.829200 5.371370 0.0183137 -0.00335728 0.00487374 1.008
1399 1 15.984000 11.331800 3.735480 -0.0130185 0.0157493 -0.0126657 1.008
4170 2 10.381500 15.550200 7.109560 0.00193852 0.000298387 0.00476456 15.9994
3056 2 14.496600 16.268700 6.198940 0.00118343 0.00293219 -0.00253486 15.9994
3057 2 15.230400 16.455900 4.888070 0.00311992 0.00506821 -0.00108754 15.9994
39 2 15.003800 11.477600 6.412990 -0.0058122 0.00456537 0.00505094 15.9994
4169 2 10.249200 15.430000 8.612870 -0.0018355 0.00231795 0.00454354 15.9994
2025 2 15.232300 10.580700 8.810100 0.00574669 0.00166362 -0.001972 15.9994
2262 2 9.122620 17.131600 8.123710 0.00505001 0.00394861 -0.0023686 15.9994
3032 2 14.174700 16.491400 0.981823 -0.000280297 -0.00223545 0.00165166 15.9994
4086 2 15.941300 14.054900 5.742670 0.00273146 0.00080136 0.00182504 15.9994
2864 2 13.489600 13.316100 7.537600 -0.00217608 0.00288997 0.00307083 15.9994
2863 1 13.107600 12.862200 8.288810 -0.00795982 0.00525776 0.00151581 1.008
4084 1 16.211400 13.137800 5.789080 -0.0148165 -0.00411202 0.00595521 1.008
2704 1 16.844500 12.753200 8.411940 0.0135491 -0.0197449 0.0178053 1.008
2662 1 16.212400 17.684700 3.858490 0.0100495 -0.00171567 0.00044192 1.008
4457 2 13.951100 17.379300 8.467650 0.000417935 0.00260736 -0.00332384 15.9994
2865 2 12.725200 12.066300 7.919290 -0.00507648 0.00411604 0.00107706 15.9994
4217 2 17.618000 9.300170 5.550630 0.000799002 0.00950072 -0.00121675 15.9994
4390 1 11.099000 17.032400 0.171267 -0.00279694 0.000673075 0.00767932 1.008
4391 2 11.986100 17.214600 0.481024 -0.00304627 0.00491031 0.00576919 15.9994
427 1 14.972500 14.810200 0.586135 0.000844575 -0.000779432 -0.00201049 1.008
429 2 15.849600 14.843800 0.204407 0.00149138 0.00165281 -0.000237107 15.9994
2855 2 15.401100 9.234580 0.164958 -0.00252241 0.00169627 -0.00311596 15.9994
3033 2 14.106100 17.771000 0.175689 0.0076466 -0.00130237 0.00255237 15.9994
1016 2 1.854890 0.855727 11.063000 -0.00211952 -0.00259634 -0.00501512 15.9994
3906 2 0.395652 8.092740 15.049600 0.00444653 0.00200529 -0.000316322 15.9994
873 2 0.340838 8.192930 17.389700 -0.00212976 0.0028039 -0.00660473 15.9994
3904 1 0.004794 8.317980 14.205400 -0.00282574 -0.00537723 0.00111128 1.008
2612 2 3.364460 1.617520 15.435100 0.000555412 0.00474568 0.00242855 15.9994
3905 2 0.692082 8.132290 13.565600 -0.00202591 0.00649965 -0.00143785 15.9994
2416 1 0.956391 5.837070 8.986680 0.000323704 0.000101313 0.0116091 1.008
94 1 2.645370 2.192710 10.266300 -4.02264e-06 0.00462074 -0.00169075 1.008
2126 2 6.788540 3.253210 13.378500 0.0055449 0.00164197 0.00262827 15.9994
2125 1 6.237760 4.026510 13.500500 -0.00593227 -0.00833467 0.0133278 1.008
1975 1 5.195240 2.827740 11.347700 -0.00208613 0.00115059 2.08005e-05 1.008
1976 2 5.926810 3.229040 10.878600 -0.000636549 -0.00211311 -0.000447103 15.9994
1977 2 5.444830 1.908280 11.440100 -0.00645259 -9.21668e-05 -0.00082148 15.9994
2127 2 5.514230 3.905260 12.885700 -0.000411113 -0.00705913 0.00667063 15.9994
228 2 8.047560 7.043860 14.860700 0.00131328 -0.00424624 -0.00286534 15.9994
4269 2 2.106670 0.477206 13.256700 0.000779884 0.0040085 -0.00772898 15.9994
4471 1 5.049510 7.449340 12.498600 0.00482528 0.00758882 0.0128219 1.008
4268 2 3.589990 0.681848 13.479800 0.000223894 -0.00531012 0.00416874 15.9994
2652 2 7.006880 5.424810 13.583100 -0.00319393 -0.00603495 0.00142361 15.9994
2050 1 7.517760 1.301390 12.212600 -0.00268186 -0.00382535 -0.00430625 1.008
2650 1 7.380110 6.306040 13.563800 -0.00797444 -0.00408504 -0.000111366 1.008
692 2 3.154150 7.582800 12.327800 -0.00202802 0.00175082 0.00324002 15.9994
691 1 2.209920 7.515120 12.469500 -0.000895674 0.0041854 0.0117004 1.008
4103 2 4.790060 3.885940 14.692800 -0.00028665 -0.00338586 -0.0022313 15.9994
693 2 2.085390 6.643290 12.844500 -0.00135456 -0.000820788 -0.000190625 15.9994
2674 1 1.271420 5.027730 13.578900 -0.00449891 0.0103436 0.00541121 1.008
2052 2 7.946910 1.320370 11.357200 0.00384184 0.00668655 -0.000780488 15.9994
2676 2 1.790900 4.573420 14.242200 -0.00399039 -0.00415647 -0.00493005 15.9994
4102 1 3.975200 4.094730 15.149500 0.00336999 0.000244695 0.00256191 1.008
95 2 2.016370 2.859000 10.543200 -0.00258436 0.00138633 0.000103942 15.9994
2651 2 7.822700 6.360670 12.716800 -0.00597499 -0.00411151 0.000970519 15.9994
588 2 5.759120 1.559890 15.711600 -0.00642763 0.00286734 0.000188409 15.9994
586 1 6.715840 1.589350 15.718700 -0.00640255 0.00398768 -0.0129193 1.008
872 2 1.741300 7.763950 17.006800 -0.00208589 -0.00322331 0.000508277 15.9994
96 2 3.475690 2.471300 10.652600 -0.00313284 0.00151331 0.00716761 15.9994
2967 2 1.180480 7.336330 9.651550 0.00114819 -0.00477466 -0.00119881 15.9994
2675 2 0.383471 5.039640 13.936100 -0.00575812 -0.00461277 0.0027549 15.9994
1612 1 7.035560 3.224630 9.115450 0.0281722 0.0174815 -0.0209218 1.008
587 2 6.984180 0.670559 15.726200 -0.00537559 0.00446153 0.00384831 15.9994
614 2 7.484210 2.273250 17.088000 -0.00555692 0.00337146 -0.00442595 15.9994
226 1 8.430490 7.342850 15.685500 -0.000383819 -0.00810462 -0.000717994 1.008
4472 2 5.760630 6.873120 12.778800 0.00719254 0.00384989 -0.000917923 15.9994
2051 2 8.183960 0.957568 12.807800 -0.00183681 0.00458094 -0.000431633 15.9994
871 1 0.819644 7.537430 16.882500 -0.00157153 -0.012382 0.0135953 1.008
4104 2 3.849280 3.368210 15.759900 -0.000379023 -0.00309936 -0.0022453 15.9994
2417 2 0.888930 5.135780 9.634650 -0.0070886 -0.0039124 0.00647101 15.9994
181 1 0.822717 4.002390 11.007600 0.00309945 0.0173708 0.000361607 1.008
2613 2 3.356070 1.242470 16.901800 0.000213585 -0.00179266 0.00070273 15.9994
2611 1 3.860600 1.724630 16.246600 0.00524511 -0.00668394 0.00102752 1.008
182 2 0.991582 4.343680 11.885800 0.00318299 -0.0024504 0.00800625 15.9994
567 2 3.610610 8.713810 16.435900 0.00955472 -0.00298585 -0.00656824 15.9994
565 1 3.393740 8.319220 17.280600 -0.00232412 -0.00221981 -0.00929879 1.008
566 2 3.971310 7.558680 17.345500 -0.000774675 -0.000113405 0.00109124 15.9994
204 2 5.842580 0.389504 12.830600 -0.00472047 -0.00200973 -0.00281058 15.9994
4213 1 8.788150 7.158890 11.327800 0.000204674 -0.0080486 0.0124158 1.008
2965 1 1.446590 8.213650 9.926720 0.0104775 -0.00530632 -0.00856497 1.008
2966 2 1.840040 8.085430 10.789800 4.85167e-05 -0.000910318 -0.00317111 15.9994
4473 2 5.445920 8.014950 11.835900 -0.00514561 0.00499851 0.00467152 15.9994
615 2 7.807640 3.604140 17.733000 -0.00764442 0.00127183 0.00083428 15.9994
1737 2 8.179200 5.881670 17.060600 0.00789235 -0.00243401 0.00702222 15.9994
4267 1 2.738640 0.791112 13.903500 -0.000995624 -0.0191829 0.00524632 1.008
1614 2 7.592060 2.535820 9.478860 -0.00246124 0.00538808 0.00289665 15.9994
3285 2 8.692850 8.293310 9.215910 0.00298444 0.00352258 0.00388498 15.9994
3866 2 4.159650 8.412940 14.045000 0.00323472 -0.00291608 0.00254208 15.9994
227 2 7.819760 8.006000 16.007200 0.00365158 -0.00314128 -0.0033949 15.9994
2351 2 4.850400 5.227710 16.435700 0.00291837 -0.00256618 0.00160142 15.9994
2350 1 4.776290 5.959460 17.048300 -0.00903251 -0.00178139 -0.000801236 1.008
202 1 5.021280 0.011555 12.516200 -0.00883882 0.0146706 -0.0118901 1.008
287 2 6.790800 8.705730 17.563200 -0.00580135 0.00358601 -0.00693854 15.9994
1015 1 1.453010 0.109514 11.507800 -0.0116865 0.00180482 -0.00634668 1.008
302 2 16.996100 2.558100 15.348100 0.00096883 0.000331621 0.0035696 15.9994
4081 1 17.675500 0.088837 11.402400 -0.00892421 -0.000687277 -0.0151782 1.008
3826 1 8.897240 1.439470 9.687990 -0.00822698 -0.00794062 0.00228433 1.008
3828 2 9.621940 1.249810 10.283900 0.00101291 0.00976442 -0.00339551 15.9994
395 2 11.489500 7.345920 8.955010 0.00281248 0.000965437 0.00485028 15.9994
2547 2 9.948580 6.260460 15.414100 -0.00283024 -0.00409983 0.00284983 15.9994
1623 2 16.653700 6.685920 9.184720 0.00206619 -0.00407881 -0.00174465 15.9994
2546 2 10.608600 4.899430 15.476100 0.00100616 -0.00242477 -0.0024531 15.9994
2545 1 10.794400 5.835100 15.555100 -0.000896814 -0.00205202 -0.00277992 1.008
3831 2 15.463700 1.315980 16.506700 0.00711278 -0.00287347 -0.00175923 15.9994
1199 2 15.427600 5.079160 15.252200 -0.00017598 -0.0016276 0.000246657 15.9994
4214 2 8.974270 7.795500 12.018000 0.00325777 0.00247956 0.00185704 15.9994
3331 1 11.200200 4.376730 9.357560 0.0138148 0.01146 -0.00352387 1.008
1198 1 15.853800 5.658660 14.620700 -0.00599248 -0.00100635 -0.00307404 1.008
1200 2 15.584700 5.321800 13.766100 -0.00264599 -0.00862037 -0.0011041 15.9994
4082 2 16.996200 0.553013 11.891600 0.00313899 0.000325126 0.000670032 15.9994
4215 2 9.642400 6.787880 11.106900 0.00130886 1.08902e-05 0.00324183 15.9994
3332 2 11.507400 4.264840 10.257200 0.00151628 -0.00606519 -0.00150899 15.9994
888 2 16.640900 1.968460 13.503100 0.00065251 -0.00349028 -0.00254426 15.9994
887 2 15.874600 2.492170 12.307100 -0.000803056 -0.000384265 -0.000187302 15.9994
886 1 16.061900 1.689480 12.793800 0.016673 -0.00523994 -0.0149263 1.008
2904 2 14.429900 4.671550 11.690300 0.00208491 0.00167928 -0.00497782 15.9994
1295 2 11.672800 0.582969 11.692300 -0.00530729 0.00567703 -0.00547277 15.9994
417 2 14.678500 3.796060 16.499100 0.00863298 0.00135169 -0.000942223 15.9994
416 2 14.208500 5.099160 17.109700 0.00162477 -0.00340297 0.00368687 15.9994
415 1 14.102300 4.543200 16.337800 0.0032375 -0.00209767 0.00256278 1.008
3609 2 14.680300 6.986970 14.648500 0.000670164 0.00144176 -0.00563295 15.9994
1145 2 12.302800 4.245820 12.896300 -0.0027834 -0.00166957 0.00464822 15.9994
3971 2 14.047800 1.091410 13.140000 0.00324165 -0.00262005 0.00134807 15.9994
15 2 12.866700 3.834530 15.104800 0.0066628 -0.00184616 0.00756989 15.9994
13 1 12.267200 3.404870 14.494700 0.00693571 0.00454009 0.00284802 1.008
14 2 11.498400 3.191740 15.023700 0.00483201 0.0032249 -0.000797517 15.9994
3970 1 13.202000 0.965728 13.570100 0.00422844 -0.000105034 0.00396039 1.008
2903 2 15.840300 5.024350 11.268000 0.00424457 0.000745954 0.00163563 15.9994
2902 1 15.346900 4.547760 11.935600 0.000261198 0.0131751 0.00751769 1.008
3972 2 12.968600 1.833880 13.898900 0.00407022 0.00219115 -0.00228111 15.9994
1144 1 12.236700 4.742370 12.080600 0.0190871 -0.0017229 0.0029262 1.008
1146 2 12.189400 5.656820 12.359500 -0.00401509 -0.00276469 0.0021723 15.9994
3829 1 15.641600 2.250460 16.613200 0.00457556 -0.00259887 -0.000221538 1.008
3830 2 15.906500 2.341540 17.528500 -0.00559903 -0.00181652 0.00261375 15.9994
3607 1 14.043800 7.663900 14.418700 0.0285336 0.0332626 0.0111685 1.008
985 1 11.993400 7.313790 12.629900 -0.00568533 0.00482598 0.00102658 1.008
987 2 12.657000 7.558350 13.274900 -0.00714752 -0.00128802 0.00478761 15.9994