LAMMPS data file via write_data, version 29 Sep 2021, timestep = 50000

4500 atoms
2 atom types
3000 bonds
1 bond types
1500 angles
1 angle types

-0.013383155019873527 35.572633155019204 xlo xhi
-0.013383155019873527 35.572633155019204 ylo yhi
-0.013356785780594294 35.513366785779894 zlo zhi

Masses

1 1.008
2 15.9994

Pair Coeffs # lj/cut/tip4p/long

1 0.155 3.1536
2 0 0

Bond Coeffs # harmonic

1 450 0.9572

Angle Coeffs # harmonic

1 55 104.52

Atoms # full

3794 1265 2 0.52 2.988983870198074 4.06176457022107 2.4027970559694274 1 0 1
3793 1265 1 -1.04 3.1092798061292144 3.3665474716704447 3.0496617355441447 1 0 1
3795 1265 2 0.52 3.769764064738215 3.7101660480251777 3.6512584926112566 1 0 1
2522 841 2 0.52 1.5242802509905866 0.6148321658746256 6.642680808824917 1 0 0
1615 539 1 -1.04 0.9101678457086138 5.3406519616259915 5.089370037510615 0 1 1
1616 539 2 0.52 0.7448030969472111 5.111512379539362 4.174831141788709 0 1 1
3245 1082 2 0.52 6.535670307876479 3.629864923124673 3.234469301832092 1 0 0
3246 1082 2 0.52 6.0720276535944135 4.022930446225533 4.6209865846158245 1 0 0
3244 1082 1 -1.04 6.143938737761018 3.272361948085473 4.031319249948422 1 0 0
1268 423 2 0.52 4.811959924896783 7.542486215767072 2.972939357914153 0 1 0
1267 423 1 -1.04 5.065458820783286 7.4881022301914015 2.0515205975791857 0 1 0
1269 423 2 0.52 5.7790162765579485 8.119702180556084 1.9612482318866786 0 1 0
4228 1410 1 -1.04 2.942996921539886 7.67428204184852 0.5830552014723044 0 1 0
4229 1410 2 0.52 3.6671823112767186 7.8292392560697035 1.189500271575543 0 1 0
4230 1410 2 0.52 2.66847335570224 6.774901448326936 0.7618936755111647 0 1 0
2693 898 2 0.52 7.2997875856762935 2.03389534829853 4.642899040085066 0 1 0
4238 1413 2 0.52 1.9087954008659556 8.293608623338208 1.972276137418069 1 0 1
2353 785 1 -1.04 3.066920269280131 5.588801191758873 6.962632165658523 1 1 0
2355 785 2 0.52 2.522300606433964 5.59972340755372 6.175547692400755 1 1 0
3966 1322 2 0.52 7.098084451615238 5.2584918563524745 1.386578612590464 0 0 0
3964 1322 1 -1.04 7.406619675585312 4.473564713963728 1.8392675087555597 0 0 0
2980 994 1 -1.04 5.169203359332037 5.7116250494084735 5.225884638519782 1 0 0
2981 994 2 0.52 4.866640605800677 5.573870581585306 6.123498880146037 1 0 0
2982 994 2 0.52 5.804060568654261 6.424806927349182 5.293410727911674 1 0 0
2224 742 1 -1.04 6.4545884416575845 7.9219445439809695 6.545531126435881 0 1 0
4010 1337 2 0.52 3.2890949704937356 7.557333181856853 6.990900924500293 1 0 0
3279 1093 2 0.52 1.7392903793439114 0.6475230882517246 3.1457758468388946 0 1 0
4110 1370 2 0.52 4.955453809633324 2.2735003140409447 7.360419076023985 1 1 0
389 130 2 0.52 3.1616629562144802 3.860208134890177 7.510016850073053 1 1 0
388 130 1 -1.04 3.3889576931273275 2.936503100996689 7.6164966741316515 1 1 0
390 130 2 0.52 3.2524987647020316 2.7615714863008 8.54763024727404 1 1 0
564 188 2 0.52 1.5845846616473767 2.496324856555947 3.1817046037896297 0 0 1
562 188 1 -1.04 0.70974376923808 2.1145875021088987 3.2535505861983496 0 0 1
3046 1016 1 -1.04 7.5333970686645895 7.137823562578689 3.972661398835875 1 1 0
3048 1016 2 0.52 7.030883894278409 6.898443171185953 3.1939384841961527 1 1 0
4108 1370 1 -1.04 5.785844962945548 1.7977932683884876 7.340793092802618 1 1 0
4109 1370 2 0.52 5.541220154405355 0.882307105147051 7.47598047372313 1 1 0
269 90 2 0.52 1.5387551446699643 4.926923920575613 1.3655950672560684 0 0 1
563 188 2 0.52 0.37975766234366815 2.4275814163511162 4.095795098738506 0 0 1
3965 1322 2 0.52 8.361010905140978 4.54356953088294 1.8176215725241445 0 0 0
2692 898 1 -1.04 7.981029282962665 1.4456470087386848 4.9686374027067695 0 1 0
407 136 2 0.52 8.718770553913961 3.3811098156400363 7.0195055039296275 0 1 0
4011 1337 2 0.52 4.18970002033623 8.55332119058641 7.690052998403665 1 0 0
4009 1337 1 -1.04 3.3857610280063213 8.491838091077682 7.174171456684666 1 0 0
2225 742 2 0.52 6.846335074281878 7.626127173181607 7.367272265092624 0 1 0
2354 785 2 0.52 2.441894045701923 5.610459863527967 7.687273429855341 1 1 0
1613 538 2 0.52 6.683036068816039 2.8479363767616745 8.309182335860411 0 1 0
2501 834 2 0.52 7.387943858757792 8.24984308183995 0.8534220310608408 0 0 0
2226 742 2 0.52 7.128875368074645 7.7591613379836115 5.885932302370635 0 1 0
3047 1016 2 0.52 8.24012923668892 7.691855034258264 3.6412845573574852 1 1 0
268 90 1 -1.04 2.4265849113215587 5.037386972075949 1.0253186212586862 0 0 1
2694 898 2 0.52 7.840378185196249 0.6279491180730652 4.491333235222242 0 1 0
855 285 2 0.52 5.472742951647769 1.4768650095473006 4.341097694198787 1 1 0
408 136 2 0.52 7.985378279267312 4.679588898739373 6.7587699405318125 0 1 0
406 136 1 -1.04 8.451004026795612 3.9708857680334178 6.314737986989851 0 1 0
1163 388 2 0.52 8.661299812686137 0.509440996170914 6.62178270667681 0 1 0
1590 530 2 0.52 0.2709116057417867 3.606369322181002 5.7240213040789065 0 0 0
2018 673 2 0.52 7.669731983429406 5.137479282115609 8.573843948583486 1 0 0
2017 673 1 -1.04 8.08329394425531 5.847898699212152 8.083433308027999 1 0 0
2521 841 1 -1.04 2.4616994734867634 0.4274277482062753 6.594135721194447 1 0 0
2418 806 2 0.52 0.07676961285840976 5.906382544093014 8.615607928845083 1 0 0
854 285 2 0.52 5.39912578067011 0.15463198698517697 3.6074932108688853 1 1 0
1617 539 2 0.52 0.37571748037408176 6.119958782783085 5.241933222754671 0 1 1
270 90 2 0.52 2.4440035886591427 4.51226220164505 0.22521087528961675 0 0 1
853 285 1 -1.04 5.0459120477667385 0.6204454473019906 4.365444211314259 1 1 0
2523 841 2 0.52 2.883705035072818 1.2726262855021953 6.748351733797796 1 0 0
1762 588 1 -1.04 -0.0038086467932288816 5.137121861192237 2.4339655228659796 1 0 1
1794 598 2 0.52 17.40104799825102 1.8688233584346334 4.780873273085523 0 0 0
4265 1422 2 0.52 9.082432397707002 5.814375613758549 3.998544024742001 0 1 0
4264 1422 1 -1.04 9.578885618971034 5.033766479380318 4.244339505623641 0 1 0
4266 1422 2 0.52 9.137300608643427 4.705240671717021 5.027477623935568 0 1 0
584 195 2 0.52 15.628878571811207 2.079091029531808 8.085667674249649 0 0 0
912 304 2 0.52 11.354214318305955 2.2566618130983804 2.487049210755042 -1 1 0
583 195 1 -1.04 14.932125006889953 1.4801839694449745 8.354138609636834 0 0 0
911 304 2 0.52 11.935558177878834 1.1134813068096872 1.6826408326555287 -1 1 0
1793 598 2 0.52 16.519334860148895 3.0861510459410972 4.961401484472352 0 0 0
910 304 1 -1.04 11.823891707366647 2.064118927543318 1.6755307405849165 -1 1 0
3290 1097 2 0.52 15.169310938629732 4.885944574204606 6.354931009009596 1 1 0
3289 1097 1 -1.04 14.243294367168897 4.956410057773537 6.5867925301926435 1 1 0
3291 1097 2 0.52 13.842905290273974 5.405109608006408 5.842085110648531 1 1 0
4066 1356 1 -1.04 12.587457786791825 5.816921204914296 4.624324862592437 -1 1 0
465 155 2 0.52 15.549709925525613 4.076001185267956 3.150093244788147 0 0 0
463 155 1 -1.04 16.33848220287952 4.4348617586757735 3.5566510184579507 0 0 0
464 155 2 0.52 16.46765092967043 5.279608819319855 3.125432183581273 0 0 0
4068 1356 2 0.52 12.853119458325885 6.249148748334733 3.812638305486516 -1 1 0
4067 1356 2 0.52 11.63780550922049 5.724806304651522 4.547466311648791 -1 1 0
1066 356 1 -1.04 17.031044496362043 5.306144717926231 6.399040752083971 1 -1 0
991 331 1 -1.04 13.773145542892534 7.278765534234089 2.589832020838407 0 0 1
992 331 2 0.52 14.691932093446773 7.193516533579576 2.3352819817340067 0 0 1
439 147 1 -1.04 11.204906949501988 7.2658366721402725 0.8463393747011917 1 0 0
441 147 2 0.52 12.069636366840104 6.934050042310308 1.0879847906646571 1 0 0
440 147 2 0.52 10.98908978619674 7.896225720151391 1.5335543630203579 1 0 0
585 195 2 0.52 14.131946150427101 2.0025161593189877 8.298328923280263 0 0 0
3035 1012 2 0.52 10.32012501929064 3.3046647689724504 3.9273093383745215 0 1 0
3036 1012 2 0.52 9.563269257017124 2.0327792836349237 4.245698815398111 0 1 0
2276 759 2 0.52 10.08500359571761 5.701239072884534 0.7086240766698715 0 0 1
1685 562 2 0.52 12.168644574274039 7.041846178360174 5.80735919321401 0 1 0
3034 1012 1 -1.04 10.393508502266661 2.3509664098724254 3.891168720280362 0 1 0
2769 923 2 0.52 13.52927303508664 2.2900673961222315 0.9888754114168075 1 1 1
718 240 1 -1.04 9.810240545047927 8.55438377348085 2.7351258976184383 0 0 0
492 164 2 0.52 15.558591227634508 0.8502091028980533 0.9367069968945834 1 0 1
1741 581 1 -1.04 12.207210543519363 0.9214674466554595 5.394090916014209 0 1 0
1743 581 2 0.52 11.687447008689988 1.4519388793302914 4.790205358166047 0 1 0
490 164 1 -1.04 16.075924754882994 0.12473060841035558 0.5870231173397734 1 0 1
2411 804 2 0.52 15.763031500371383 0.7534496588641556 5.411423981019003 1 0 0
491 164 2 0.52 16.75702809958873 0.5463474598363325 0.06302950628682645 1 0 1
170 57 2 0.52 13.186124181588745 3.6208871450830875 7.0799865678828 0 0 0
171 57 2 0.52 12.43632523394117 2.345570894498172 6.7586375506462835 0 0 0
169 57 1 -1.04 12.678940678572305 2.918125637982702 7.4863398604817 0 0 0
1742 581 2 0.52 12.70130591637843 0.3283091009977067 4.828171505235769 0 1 0
59 20 2 0.52 17.338783717048315 7.009515907460492 2.863551381047473 1 0 1
58 20 1 -1.04 16.517199477946114 7.1465481529001105 2.391901784664062 1 0 1
1684 562 1 -1.04 11.880463653601232 7.776307107458349 6.349346961146479 0 1 0
1686 562 2 0.52 11.538755913730297 7.367999382053493 7.144804352769066 0 1 0
580 194 1 -1.04 17.193313030726237 2.918029269972042 7.695060040593212 0 0 0
60 20 2 0.52 16.786469613579037 7.429122854787386 1.5179012286519142 1 0 1
4007 1336 2 0.52 10.147543576541516 8.275603319910612 5.979147829654598 0 1 0
1162 388 1 -1.04 9.24221721037919 0.13297575716313667 7.282873276021397 0 1 0
1164 388 2 0.52 10.11806256708703 0.4193491885215856 7.0238037700093905 0 1 0
2275 759 1 -1.04 9.749713815689754 4.990127337197499 0.162608781300738 0 0 1
3768 1256 2 0.52 14.446452196512091 4.398759427115555 0.6314717062676002 -1 0 0
3767 1256 2 0.52 15.777367722383527 4.819917629992253 0.04565191919799167 -1 0 0
2767 923 1 -1.04 14.48233855352297 2.322544602620046 0.9061518438813932 1 1 1
3766 1256 1 -1.04 14.858856755979513 5.0828880251211475 0.10409861184451293 -1 0 0
719 240 2 0.52 8.972575065877534 8.813166743081494 2.3509647860377507 0 0 0
3284 1095 2 0.52 9.053115291663461 8.804503265964088 7.837215471028027 0 0 0
993 331 2 0.52 13.653928089436128 8.21518992436558 2.7483514214120777 0 0 1
4006 1336 1 -1.04 9.335308799683752 8.781988690697135 5.970183259602897 0 1 0
4216 1406 1 -1.04 17.093275533701227 8.581115734810227 5.902622092050993 1 1 0
2019 673 2 0.52 8.999217193347807 5.829587702384335 8.36088807761579 1 0 0
394 132 1 -1.04 10.834155150193983 6.789636196724167 8.533906912658994 1 1 0
396 132 2 0.52 11.019122390885244 5.90991037782494 8.86269475220472 1 1 0
3333 1111 2 0.52 11.793738559373963 3.8396466350041396 8.832700113958333 1 0 0
581 194 2 0.52 17.111200589986932 3.8539758393273855 7.512048001678289 0 0 0
4196 1399 2 0.52 14.769773731488492 6.487687627697144 7.927716824936421 0 0 0
4195 1399 1 -1.04 14.539084500815012 7.399887228761235 8.10351843661786 0 0 0
4197 1399 2 0.52 14.083996896795155 7.689048029441538 7.312624547390365 0 0 0
3827 1276 2 0.52 9.14750265807393 1.020235637683312 8.864677052795036 0 1 0
1792 598 1 -1.04 16.638507014558144 2.1861266193587436 5.264693207354076 0 0 0
1068 356 2 0.52 17.140063143915082 6.222376660258562 6.653728408509705 1 -1 0
582 194 2 0.52 17.15132830896335 2.5006700234358727 6.834664560323089 0 0 0
1067 356 2 0.52 17.74749631264755 5.140514488426328 5.786264070072482 1 -1 0
2854 952 1 -1.04 16.229563840930066 8.764908970257974 0.06820097559562696 1 0 1
3238 1080 1 -1.04 17.537601532032475 4.232185847567436 0.10032000289019521 0 0 0
4237 1413 1 -1.04 1.4741180723015799 8.946584114232733 2.5208292053369292 1 0 1
4239 1413 2 0.52 2.1014386215704257 9.128064939381947 3.2206616699798567 1 0 1
480 160 2 0.52 3.126299403255922 9.19980207386372 5.549094121654198 1 0 0
3654 1218 2 0.52 6.191025015761777 9.651016715087415 6.353510292882601 1 0 0
1828 610 1 -1.04 5.195113455628534 10.175977137892644 3.5141583331441835 1 -1 0
1830 610 2 0.52 6.079392649441237 10.154153367899061 3.879953180638271 1 -1 0
478 160 1 -1.04 2.825981851423561 9.531424553079765 4.702886263418397 1 0 0
479 160 2 0.52 2.2891598599566705 10.293441029464681 4.920566945141506 1 0 0
276 92 2 0.52 1.9995974695336312 11.226978874793856 7.755220381826092 1 1 0
1829 610 2 0.52 4.619726585438678 10.202034640528595 4.278673078698185 1 -1 0
1649 550 2 0.52 2.664234261492325 16.815782760145094 2.0406816870658435 1 0 0
2819 940 2 0.52 3.8593479421044083 12.728812703821063 6.82193942548767 0 -1 0
2820 940 2 0.52 4.4781545080438905 11.354224882197636 6.961517168602391 0 -1 0
3241 1081 1 -1.04 5.661990758548156 13.343011368444737 2.891617109572725 -1 0 0
3242 1081 2 0.52 6.326596576114681 13.348049126217871 3.580460755296013 -1 0 0
3243 1081 2 0.52 5.980531136673915 12.702617892341106 2.2554881420925392 -1 0 0
2929 977 1 -1.04 2.8032102122586666 13.581043063481438 3.7623502723841407 0 1 0
2964 988 2 0.52 2.025136144379108 12.468295546040226 4.7713766809478475 0 0 0
2930 977 2 0.52 3.5996836085900616 13.050385234209822 3.778605645928573 0 1 0
4413 1471 2 0.52 2.465531711515964 14.544083682019897 2.3135559932110072 1 0 0
1745 582 2 0.52 5.547693658823084 14.640134190973544 1.7398964125365806 0 0 0
2962 988 1 -1.04 1.6129161692408993 11.88400835820882 5.407706009388022 0 0 0
4411 1471 1 -1.04 2.64813508694941 15.16765069109957 1.6106676432807066 1 0 0
1744 582 1 -1.04 5.450459223544477 15.377587755328715 1.1374517719131423 0 0 0
4412 1471 2 0.52 3.5742727821519282 15.036070415634722 1.4077207521156494 1 0 0
4052 1351 2 0.52 2.3639593441966253 15.24021895050272 6.568897616631114 0 1 0
2188 730 1 -1.04 5.965035104400414 11.247526853789212 1.057644208439349 1 0 0
2190 730 2 0.52 5.64388950013608 10.76985323457687 1.8224482711706338 1 0 0
2963 988 2 0.52 1.2294583818247269 12.471033017343133 6.059314799106315 0 0 0
1746 582 2 0.52 6.030804363467304 16.05276784668363 1.4889673516616408 0 0 0
2818 940 1 -1.04 3.843878698898368 11.943771517405205 7.369390681898151 0 -1 0
2189 730 2 0.52 5.228364777499845 11.24514030032878 0.4464625874568549 1 0 0
3928 1310 1 -1.04 1.2703719092079668 11.311667898140772 0.969528942374733 1 0 0
2931 977 2 0.52 2.9503133057844995 14.255047727581402 4.425909035905974 0 1 0
4053 1351 2 0.52 3.8656701795503716 15.380319189255404 6.438009565759959 0 1 0
4051 1351 1 -1.04 3.1221802868428465 14.87012199029513 6.116834477039111 0 1 0
3929 1310 2 0.52 1.1554998718683778 12.054130776908295 1.562643710939549 1 0 0
3930 1310 2 0.52 1.1196109375629673 10.541334007849228 1.517332435332699 1 0 0
2749 917 1 -1.04 0.0618928373121768 13.5294984922644 7.093297875368839 1 0 0
1666 556 1 -1.04 7.86519745565692 13.407916194500318 4.714388503344089 0 0 1
1668 556 2 0.52 7.863126806164474 13.639427132092397 5.643167399629914 0 0 1
274 92 1 -1.04 1.3501594841136635 10.853547275714229 8.351048363631651 1 1 0
3835 1279 1 -1.04 8.000928589669858 13.356093290568287 7.993676982168674 0 0 0
1858 620 1 -1.04 7.754654554864709 17.33912448938092 1.847924492902883 -1 0 1
2502 834 2 0.52 7.095964825852216 9.72991313806938 0.9800556157640712 0 0 0
3652 1218 1 -1.04 5.892758118717552 10.560553801571023 6.356824872572485 1 0 0
2500 834 1 -1.04 7.376482934866033 8.967665852905013 1.486534151118594 0 0 0
3653 1218 2 0.52 6.671832018467816 11.067769858966336 6.584876554978628 1 0 0
1648 550 1 -1.04 2.739655665668419 17.757792756766165 2.1928678167165994 1 0 0
1667 556 2 0.52 8.13492854895371 14.210346628509257 4.267642069799122 0 0 1
3463 1155 1 -1.04 1.6208001165854826 17.017146610843426 7.3602336679686 1 -1 0
1106 369 2 0.52 5.0203102900378465 16.753189676012983 7.52925506041346 0 0 0
1107 369 2 0.52 4.446474912776981 17.03611215882375 6.157189821329573 0 0 0
3464 1155 2 0.52 0.6725195329811303 17.147343420998908 7.353557936972959 1 -1 0
3465 1155 2 0.52 1.859746860846454 16.94574302612002 6.436092000530252 1 -1 0
1105 369 1 -1.04 5.136276524816937 16.54399886426968 6.602420190183958 0 0 0
1676 559 2 0.52 1.428615760274827 15.641171169464506 -0.002016638537789501 1 0 0
3837 1279 2 0.52 8.439845684700835 12.618291491177107 8.41703513846746 0 0 0
3836 1279 2 0.52 8.602895794672875 14.091412490154788 8.108450667394527 0 0 0
3885 1295 2 0.52 8.403898756467079 16.310114605019603 3.261684230261943 0 0 0
275 92 2 0.52 1.7019891453690632 9.993592250116867 8.581102886323022 1 1 0
3283 1095 1 -1.04 8.506125269086779 9.000095624370841 8.597989671783049 0 0 0
831 277 2 0.52 6.6957969223912785 17.750706742669394 5.920334291928442 0 0 1
1410 470 2 0.52 2.614560673934956 11.472729241144638 0.06553856769490975 1 0 0
138 46 2 0.52 2.771409371846423 17.565777273216877 4.200507732899032 1 0 1
68 23 2 0.52 13.668292981283754 10.00507091126315 0.78911842143232 1 0 0
4218 1406 2 0.52 16.267622797295083 8.990644052202295 6.161109917913394 1 1 0
4289 1430 2 0.52 17.17521019964592 10.054288718568873 1.4706755687813544 0 1 1
2754 918 2 0.52 13.51634591182488 17.1360111274377 4.5963871332968775 -1 0 1
2998 1000 1 -1.04 17.490541668350076 15.181721901661197 3.542666228256803 0 0 1
1401 467 2 0.52 16.77862050812517 11.556414024268529 3.2514070960470955 0 -1 0
720 240 2 0.52 9.94759661560075 9.17445060216729 3.451283895440867 0 0 0
4085 1362 2 0.52 16.556437378492173 13.033815184494076 6.675859664883128 0 0 0
4008 1336 2 0.52 9.597581258059035 9.650927116182187 5.666224363872993 0 1 0
2256 752 2 0.52 14.066357377967165 10.480616331328468 3.0291983366480046 0 1 0
2254 752 1 -1.04 13.354012777897703 10.165859147198335 2.472668979120167 0 1 0
3031 1011 1 -1.04 13.764258375430371 17.35605093208642 0.9676178068466916 0 0 1
4116 1372 2 0.52 11.124211657056495 10.970112008175786 7.552563334238455 0 0 0
37 13 1 -1.04 14.696596982993048 10.693114735354884 6.867355020612711 0 0 0
38 13 2 0.52 13.759267084669963 10.656971853988676 6.676729225306351 0 0 0
3883 1295 1 -1.04 8.97498716921781 15.802860227887122 3.8385575800552836 0 0 0
4115 1372 2 0.52 11.756515804483499 9.86125100579668 6.738613744689035 0 0 0
264 88 2 0.52 9.015185230063532 11.776670298055286 4.738122348721954 0 0 0
262 88 1 -1.04 9.656240932236413 11.070548510545525 4.6564434168260735 0 0 0
263 88 2 0.52 10.375337768837635 11.455967170617855 4.15585972146818 0 0 0
2454 818 2 0.52 12.133049021793157 12.904748483474023 3.778557551940796 0 0 0
2453 818 2 0.52 11.183335061260875 12.927298858874856 2.599816670526385 0 0 0
2452 818 1 -1.04 11.721248777115328 12.336841394526019 3.1273018903102163 0 0 0
954 318 2 0.52 11.767411200844082 16.592083867722142 5.050736891039524 0 0 0
952 318 1 -1.04 11.173574533895769 15.979045770331455 5.484066031688206 0 0 0
953 318 2 0.52 10.338294654826953 16.092965952762594 5.030677064401129 0 0 0
2592 864 2 0.52 13.51183352444096 14.17717833781984 4.701265531111201 0 0 0
827 276 2 0.52 15.012843001192271 14.275695298070374 2.1433784707580408 0 -1 0
826 276 1 -1.04 15.153235237005605 13.935322606553115 3.026932821657084 0 -1 0
828 276 2 0.52 15.64163563860069 13.122544158934488 2.8962114278134745 0 -1 0
3000 1000 2 0.52 17.206786664723666 16.092212196608177 3.4606762244493825 0 0 1
2162 721 2 0.52 10.66447202930315 13.94881836139604 0.937005005267568 0 0 0
2590 864 1 -1.04 12.775469067249253 13.72032066829959 5.10781232544771 0 0 0
2161 721 1 -1.04 10.733185655478948 14.627934519054472 1.608057553124307 0 0 0
2591 864 2 0.52 12.164414676675213 14.416652175204458 5.348575288238476 0 0 0
3884 1295 2 0.52 9.625241441064167 15.415612931252577 3.2525193959795353 0 0 0
2163 721 2 0.52 10.994872205927267 15.413790437141992 1.128284205259631 0 0 0
4114 1372 1 -1.04 11.964895990069866 10.669187507145232 7.2077066438504405 0 0 0
2255 752 2 0.52 12.63069665165805 10.768705487210804 2.64477915271613 0 1 0
4168 1390 1 -1.04 9.731811573110896 15.504093236115127 7.810956325580215 0 -1 0
2999 1000 2 0.52 16.679163344525367 14.686805865194142 3.6564870193063754 0 0 1
1400 467 2 0.52 15.930254856480142 11.990775772387007 4.427630197613557 0 -1 0
3055 1019 1 -1.04 14.691983785910589 15.829156455648231 5.371368914246013 0 0 0
1399 467 1 -1.04 15.983988816705445 11.331777578684457 3.73548434433169 0 -1 0
4170 1390 2 0.52 10.381546162838617 15.550188677146028 7.109563416272232 0 -1 0
3056 1019 2 0.52 14.496571765455895 16.268664341835706 6.198942959417097 0 0 0
3057 1019 2 0.52 15.230358220540982 16.45589706275581 4.8880667111278955 0 0 0
39 13 2 0.52 15.00382681903945 11.4775872653437 6.412993361209271 0 0 0
4169 1390 2 0.52 10.249185619140105 15.429967258092018 8.612867340517337 0 -1 0
2025 675 2 0.52 15.232285978979556 10.580745812988352 8.810095876969271 0 0 0
2262 754 2 0.52 9.122620647952091 17.131596147895582 8.123708272956632 0 1 0
3032 1011 2 0.52 14.17473837758324 16.49144915571868 0.9818225995003466 0 0 1
4086 1362 2 0.52 15.941333150981922 14.054942490851756 5.742671042316405 0 0 0
2864 955 2 0.52 13.489605080334668 13.316055906638574 7.5376039581919985 1 0 0
2863 955 1 -1.04 13.107575214128724 12.862212672358687 8.288810547636634 1 0 0
4084 1362 1 -1.04 16.21141775511279 13.1378098024839 5.789079861937494 0 0 0
2704 902 1 -1.04 16.844541152534617 12.753242926041391 8.411940140703676 0 -1 0
2662 888 1 -1.04 16.212432251330892 17.684685422679248 3.858491359781857 0 0 0
4457 1486 2 0.52 13.951136153384544 17.379329900004514 8.467646130524816 1 0 0
2865 955 2 0.52 12.725156689084322 12.066323132305696 7.919286865395425 1 0 0
4217 1406 2 0.52 17.61795861949687 9.300173842248329 5.550634965003006 1 1 0
4390 1464 1 -1.04 11.098960247862122 17.032379659240743 0.17126731541081747 0 1 0
4391 1464 2 0.52 11.986139737336961 17.21457548375169 0.48102379231798265 0 1 0
427 143 1 -1.04 14.972472281567471 14.810191183499086 0.586134976880835 0 0 0
429 143 2 0.52 15.849619881696952 14.8437756691974 0.2044073122985139 0 0 0
2855 952 2 0.52 15.401146729648632 9.234584381064417 0.1649580849981131 1 0 1
3033 1011 2 0.52 14.106120894874532 17.771033071739364 0.17568871812197884 0 0 1
1016 339 2 0.52 1.8548904992293633 0.855726614199608 11.062987358401532 1 0 0
3906 1302 2 0.52 0.39565153994206015 8.092737852939104 15.049646434383481 0 0 0
873 291 2 0.52 0.34083762836216075 8.19292973769547 17.38968999827005 1 0 0
3904 1302 1 -1.04 0.004793603599611021 8.317975143905578 14.205413009105728 0 0 0
2612 871 2 0.52 3.3644618394503536 1.6175238062758934 15.435085047866451 0 1 0
3905 1302 2 0.52 0.6920822169436226 8.132294560016502 13.565577934469866 0 0 0
2416 806 1 -1.04 0.9563908606650043 5.837066044270934 8.986678708157582 1 0 0
94 32 1 -1.04 2.645366853201162 2.192705024430536 10.266346581758183 1 1 0
2126 709 2 0.52 6.788543540128816 3.2532134892909816 13.378517260730513 0 1 0
2125 709 1 -1.04 6.237761915492747 4.026505153444186 13.500547765582459 0 1 0
1975 659 1 -1.04 5.19523739774338 2.8277391797714944 11.347668079381583 0 1 0
1976 659 2 0.52 5.926814053067959 3.22903759145087 10.878640338018972 0 1 0
1977 659 2 0.52 5.444825030452223 1.9082812864644718 11.440053338131062 0 1 0
2127 709 2 0.52 5.514234421666736 3.905257757950006 12.885699105533721 0 1 0
228 76 2 0.52 8.047559817909193 7.043859770236999 14.860727902856887 0 1 0
4269 1423 2 0.52 2.1066702786464973 0.47720570605153734 13.256712802442408 -1 0 0
4471 1491 1 -1.04 5.049514646043004 7.449339419060904 12.498622533696528 1 1 0
4268 1423 2 0.52 3.5899913362890716 0.6818481113322401 13.479816629602093 -1 0 0
2652 884 2 0.52 7.006883142812005 5.424809196115772 13.583148051771056 -1 0 0
2050 684 1 -1.04 7.517761500999341 1.3013850103590767 12.21263037150002 0 0 0
2650 884 1 -1.04 7.380108766706482 6.3060358267203185 13.563806408047274 -1 0 0
692 231 2 0.52 3.154148221920024 7.582802307306522 12.327844185509916 1 0 0
691 231 1 -1.04 2.209915624678658 7.515124787171456 12.46953538345528 1 0 0
4103 1368 2 0.52 4.790061272313417 3.885942746295082 14.692750368480528 1 1 0
693 231 2 0.52 2.0853949630257858 6.643291621034986 12.844546550283667 1 0 0
2674 892 1 -1.04 1.2714244895555096 5.027730310317538 13.57888395235031 1 0 0
2052 684 2 0.52 7.946905625643417 1.3203667349757744 11.357231719166476 0 0 0
2676 892 2 0.52 1.790903061435646 4.57341951913992 14.242190486598949 1 0 0
4102 1368 1 -1.04 3.9751951406331445 4.094725380680571 15.149515996586983 1 1 0
95 32 2 0.52 2.016366067660173 2.8589974414198935 10.543193591587258 1 1 0
2651 884 2 0.52 7.822704096294495 6.360671112167224 12.716837577563522 -1 0 0
588 196 2 0.52 5.759117992218433 1.5598922955359888 15.711641728323864 0 -1 0
586 196 1 -1.04 6.715839009597991 1.589345927109478 15.718657317490546 0 -1 0
872 291 2 0.52 1.7412988820823714 7.763949492015125 17.006833083192497 1 0 0
96 32 2 0.52 3.4756861465536226 2.4712973315619147 10.652595254887148 1 1 0
2967 989 2 0.52 1.180478620569619 7.336330125831447 9.651547742473698 1 0 0
2675 892 2 0.52 0.3834713018376529 5.039640254698082 13.93613614569074 1 0 0
1612 538 1 -1.04 7.03555552927016 3.2246292169225805 9.115448032868938 0 1 0
587 196 2 0.52 6.984177207988555 0.6705585385790632 15.72615304707256 0 -1 0
614 205 2 0.52 7.484212469955077 2.2732488360968097 17.087983048255087 0 1 0
226 76 1 -1.04 8.430493196677997 7.342853491261621 15.685468239091605 0 1 0
4472 1491 2 0.52 5.76063265475854 6.87311527707133 12.778816673301248 1 1 0
2051 684 2 0.52 8.183963086159864 0.9575681743721005 12.807775119625646 0 0 0
871 291 1 -1.04 0.8196438262629034 7.53742581549463 16.88245132384631 1 0 0
4104 1368 2 0.52 3.8492770530612463 3.368206016351538 15.759881533357511 1 1 0
2417 806 2 0.52 0.8889299651077416 5.1357753752316855 9.634654220880938 1 0 0
181 61 1 -1.04 0.8227173383731511 4.002385486325667 11.007612718945389 0 0 0
2613 871 2 0.52 3.3560734362488653 1.2424671922593526 16.90176748205336 0 1 0
2611 871 1 -1.04 3.8605996359498334 1.7246307217077486 16.246631248369734 0 1 0
182 61 2 0.52 0.9915818938665902 4.343683203900188 11.885811141784115 0 0 0
567 189 2 0.52 3.6106053323120273 8.713806887152327 16.43588218352902 0 -1 0
565 189 1 -1.04 3.393739274906412 8.319220468842783 17.280572962235045 0 -1 0
566 189 2 0.52 3.9713064574217865 7.5586756733854275 17.345531439618544 0 -1 0
204 68 2 0.52 5.842584723117425 0.38950407488000777 12.83055039638439 1 1 0
4213 1405 1 -1.04 8.788148012764873 7.158891257806118 11.32784381710907 1 1 0
2965 989 1 -1.04 1.4465883924545333 8.213654112352954 9.926720509987799 1 0 0
2966 989 2 0.52 1.8400425980931985 8.085429380083562 10.789845093173616 1 0 0
4473 1491 2 0.52 5.445919167304493 8.014953522877702 11.835918994331474 1 1 0
615 205 2 0.52 7.807635860545602 3.604138843686715 17.73298249778549 0 1 0
1737 579 2 0.52 8.179196866698485 5.881667506061258 17.060595895941518 0 0 0
4267 1423 1 -1.04 2.7386389517170513 0.7911115201887468 13.9034821400801 -1 0 0
1614 538 2 0.52 7.592063355949357 2.5358167665417497 9.478860040162521 0 1 0
3285 1095 2 0.52 8.692850223953533 8.293310045993275 9.215905343559948 0 0 0
3866 1289 2 0.52 4.159648384309566 8.412936511681774 14.045023472705589 0 1 0
227 76 2 0.52 7.819763186385617 8.0059954728868 16.0071566080677 0 1 0
2351 784 2 0.52 4.850402851315922 5.227709209997197 16.435739588389335 0 1 0
2350 784 1 -1.04 4.776286205473314 5.959461911629362 17.048337781712714 0 1 0
202 68 1 -1.04 5.0212814142132105 0.011555270166681389 12.516150307645923 1 1 0
287 96 2 0.52 6.790803850946834 8.705727230120052 17.563172979712277 0 0 0
1015 339 1 -1.04 1.4530073153001488 0.10951389127166503 11.50783375730275 1 0 0
302 101 2 0.52 16.996143221804385 2.558101169525582 15.348067897990761 0 0 0
4081 1361 1 -1.04 17.675514240234648 0.08883656602549257 11.402356928554227 0 0 0
3826 1276 1 -1.04 8.897240814314044 1.4394703240182571 9.687989343078343 0 1 0
3828 1276 2 0.52 9.621941753369956 1.2498101637663064 10.283866354335432 0 1 0
395 132 2 0.52 11.489479636446616 7.345924960172325 8.95500603326962 1 1 0
2547 849 2 0.52 9.948578021592915 6.260460660475417 15.414063727715217 0 0 0
1623 541 2 0.52 16.65366463507222 6.68592203386181 9.18472165470369 0 0 0
2546 849 2 0.52 10.608610174224669 4.899430138865513 15.476101365620117 0 0 0
2545 849 1 -1.04 10.79438892409284 5.835096606541589 15.555135265713648 0 0 0
3831 1277 2 0.52 15.463703955123595 1.3159836544787107 16.50665258263953 1 1 0
1199 400 2 0.52 15.427592430461052 5.079159852778481 15.252161637156313 2 0 0
4214 1405 2 0.52 8.974268500078194 7.795499948131348 12.01800349399888 1 1 0
3331 1111 1 -1.04 11.200192452121321 4.3767267081891275 9.35756186104307 1 0 0
1198 400 1 -1.04 15.853831496560227 5.658659733134846 14.620709352974949 2 0 0
1200 400 2 0.52 15.584716084982288 5.321796211300829 13.766114886044102 2 0 0
4082 1361 2 0.52 16.996220922686643 0.5530127686386112 11.891573528499785 0 0 0
4215 1405 2 0.52 9.642398846660557 6.7878795082144405 11.10685143159895 1 1 0
3332 1111 2 0.52 11.507441580589735 4.264839544199923 10.257179043843541 1 0 0
888 296 2 0.52 16.640919683994838 1.9684569840792812 13.50310328634226 1 0 0
887 296 2 0.52 15.874561486289037 2.4921651648234264 12.307143401559735 1 0 0
886 296 1 -1.04 16.06187941418496 1.6894754357494346 12.793798343718857 1 0 0
2904 968 2 0.52 14.42993676153268 4.671546953241764 11.690318482654252 1 0 0
1295 432 2 0.52 11.672803192802487 0.582969305135195 11.692263121307725 0 0 0
417 139 2 0.52 14.678520493231918 3.7960642997652827 16.499085457614985 0 0 0
416 139 2 0.52 14.208462142277533 5.099163734714107 17.109718081303196 0 0 0
415 139 1 -1.04 14.102318972872167 4.543197875007603 16.337793583421835 0 0 0
3609 1203 2 0.52 14.680318324610663 6.986970253632402 14.648495306223278 1 0 0
1145 382 2 0.52 12.302795722371364 4.245822402268483 12.896297643858084 0 1 0
3971 1324 2 0.52 14.047809267167752 1.0914138449373665 13.13999484165249 0 0 0
15 5 2 0.52 12.86667732185046 3.83452593428582 15.10480035987005 0 1 0
13 5 1 -1.04 12.267161256015942 3.4048709473182153 14.494711088549721 0 1 0
14 5 2 0.52 11.498412594930828 3.1917427359140054 15.023704190190458 0 1 0
3970 1324 1 -1.04 13.201990826289776 0.9657283979871877 13.57014152999925 0 0 0